# vtk DataFile Version 2.0
Data set from ImportExport Version 6.5.141.ec284b7a5
ASCII

DATASET RECTILINEAR_GRID
DIMENSIONS 26 26 26
X_COORDINATES 26 float
-3.000000 3.000000 9.000000 15.000000 21.000000 27.000000 33.000000 39.000000 45.000000 51.000000 57.000000 63.000000 69.000000 75.000000 81.000000 87.000000 93.000000 99.000000 105.000000 111.000000 117.000000 
123.000000 129.000000 135.000000 141.000000 147.000000 
Y_COORDINATES 26 float
-3.000000 3.000000 9.000000 15.000000 21.000000 27.000000 33.000000 39.000000 45.000000 51.000000 57.000000 63.000000 69.000000 75.000000 81.000000 87.000000 93.000000 99.000000 105.000000 111.000000 117.000000 
123.000000 129.000000 135.000000 141.000000 147.000000 
Z_COORDINATES 26 float
-3.000000 3.000000 9.000000 15.000000 21.000000 27.000000 33.000000 39.000000 45.000000 51.000000 57.000000 63.000000 69.000000 75.000000 81.000000 87.000000 93.000000 99.000000 105.000000 111.000000 117.000000 
123.000000 129.000000 135.000000 141.000000 147.000000 
CELL_DATA 15625
SCALARS FeatureIds int 1
LOOKUP_TABLE default
 97 97 97 97 97 97 97 86 86 86 86 86 86 90 90 90 90 18 18 18
 18 18 18 18 18 97 97 97 97 97 97 86 86 86 86 86 86 86 86 90
 90 18 18 18 18 18 18 18 18 18 97 97 97 97 97 97 86 86 86 86
 86 86 86 86 86 86 18 18 18 18 18 18 18 18 18 9 97 97 97 97
 86 86 86 86 86 86 86 86 86 86 86 57 57 57 18 18 18 18 9 9
 9 9 97 97 97 86 86 86 86 86 70 70 70 70 70 70 57 57 57 57
 57 9 9 9 9 9 9 9 97 65 86 86 86 86 70 70 70 70 70 70
 70 57 57 57 57 57 9 9 9 9 9 9 65 65 65 65 65 86 86 70
 70 70 70 70 70 75 57 57 57 57 57 57 9 9 9 9 65 65 65 65
 65 65 65 65 70 70 70 70 70 75 75 75 75 57 57 57 57 9 9 9
 103 65 65 65 65 65 65 65 65 70 70 70 70 70 75 75 75 75 75 75
 103 103 103 103 103 103 103 65 65 65 65 65 65 22 22 22 22 22 22 75
 75 75 75 75 75 103 103 103 103 103 103 103 65 65 65 65 65 65 22 22
 22 22 22 22 75 75 75 75 75 75 103 103 103 103 103 103 103 65 65 65
 65 65 22 22 22 22 22 22 22 79 75 75 75 75 43 43 103 103 42 103
 103 103 19 19 19 19 19 19 22 22 22 22 22 22 79 75 43 43 43 43
 43 43 43 103 103 15 15 19 19 19 19 19 19 22 22 22 22 100 100 100
 43 43 43 43 43 43 43 43 43 103 15 15 19 19 19 19 19 19 19 100
 100 100 100 100 53 53 43 43 43 43 43 43 43 43 43 15 15 19 19 19
 19 19 19 100 100 100 100 100 100 53 53 53 43 43 43 43 43 43 43 43
 10 10 10 10 19 19 19 19 100 100 100 100 100 100 53 53 53 43 43 43
 43 43 43 43 43 10 10 10 10 10 19 19 100 100 100 100 100 100 100 100
 53 53 43 43 43 43 43 43 43 43 10 10 10 10 10 10 97 100 100 100
 100 100 100 100 100 53 53 43 43 43 43 43 43 43 43 10 10 10 10 97
 97 97 100 100 100 100 100 100 100 100 100 53 43 43 43 43 43 63 63 63
 10 10 97 97 97 97 97 97 97 100 100 100 100 100 100 100 53 49 49 63
 63 63 63 63 63 97 97 97 97 97 97 97 97 97 90 90 90 90 90 90
 90 90 49 49 63 63 63 63 63 97 97 97 97 97 97 97 97 97 97 90
 90 90 90 90 90 90 90 49 49 18 18 18 18 18 97 97 97 97 97 97
 97 97 97 86 90 90 90 90 90 90 90 90 49 18 18 18 18 18 18 97
 97 97 97 97 97 97 97 97 86 86 86 90 90 90 90 90 90 18 18 18
 18 18 18 18 18 97 97 97 97 97 97 97 86 86 86 86 86 86 86 90
 90 18 18 18 18 18 18 18 18 18 97 97 97 97 97 97 86 86 86 86
 86 86 86 86 86 86 18 18 18 18 18 18 18 18 18 97 97 97 97 97
 97 86 86 86 86 86 86 86 86 86 86 18 18 18 18 18 18 18 18 9
 9 97 97 97 97 86 86 86 86 86 86 86 86 86 86 86 57 57 57 57
 18 18 9 9 9 9 9 97 97 97 86 86 86 86 86 70 70 70 70 70
 70 57 57 57 57 57 9 9 9 9 9 9 97 65 65 65 86 86 86 70
 70 70 70 70 70 70 57 57 57 57 57 9 9 9 9 9 9 65 65 65
 65 65 38 38 70 70 70 70 70 70 75 75 57 57 57 57 57 9 9 9
 9 65 65 65 65 65 65 65 38 38 70 70 70 70 75 75 75 75 75 57
 57 57 9 9 9 103 65 65 65 65 65 65 65 38 38 38 38 70 70 75
 75 75 75 75 75 75 103 103 103 103 103 65 65 65 65 65 65 65 65 22
 22 22 22 75 75 75 75 75 75 75 75 103 103 103 103 103 65 65 65 65
 65 65 65 22 22 22 22 22 79 75 75 75 75 75 75 75 103 42 42 42
 103 103 65 65 65 65 65 22 22 22 22 22 22 79 79 75 75 75 75 43
 43 43 42 42 42 15 15 15 19 19 19 19 22 22 22 22 22 22 79 79
 75 75 43 43 43 43 43 43 42 42 15 15 15 19 19 19 19 19 22 22
 22 22 53 79 53 43 43 43 43 43 43 43 43 43 43 15 15 15 19 19
 19 19 19 19 100 100 100 53 53 53 53 43 43 43 43 43 43 43 43 43
 15 15 15 19 19 19 19 19 100 100 100 100 53 53 53 53 53 43 43 43
 43 43 43 43 43 85 85 10 19 19 19 19 19 100 100 100 100 100 53 53
 53 53 43 43 43 43 43 43 43 43 85 10 10 10 10 19 19 100 100 100
 100 100 100 53 53 53 53 43 43 43 43 43 43 43 43 10 10 10 10 10
 97 97 100 100 100 100 100 100 100 53 53 53 53 43 43 43 63 63 63 63
 10 10 97 97 97 97 97 100 100 100 100 100 100 100 100 53 53 53 63 63
 63 63 63 63 63 97 97 97 97 97 97 97 97 97 100 100 100 100 100 100
 53 49 49 49 63 63 63 63 63 63 97 97 97 97 97 97 97 97 97 90
 90 90 90 90 90 90 49 49 49 63 63 63 63 63 97 97 97 97 97 97
 97 97 97 97 90 90 90 90 90 90 90 49 49 49 49 18 18 18 18 97
 97 97 97 97 97 97 97 97 86 86 86 90 90 90 90 90 49 49 49 18
 18 18 18 18 97 97 97 97 97 97 97 97 97 86 86 86 86 86 90 90
 90 49 49 18 18 18 18 18 18 97 97 97 97 97 97 97 97 86 86 86
 86 86 86 86 86 49 49 49 18 18 18 18 18 18 18 97 97 97 97 97
 97 86 86 86 86 86 86 86 86 86 49 49 49 18 18 18 18 18 18 18
 9 97 97 97 97 97 86 86 86 86 86 86 86 86 86 86 49 18 18 18
 18 18 18 18 9 9 9 97 97 97 97 86 86 86 86 86 86 86 86 86
 86 57 57 57 18 18 9 9 9 9 9 9 97 97 97 86 86 86 86 86
 70 70 70 70 70 70 57 57 57 57 57 9 9 9 9 9 9 97 97 65
 65 38 38 38 70 70 70 70 70 70 70 57 57 57 57 57 9 9 9 9
 9 9 65 65 65 65 38 38 38 38 70 70 70 70 70 75 75 57 57 57
 57 9 9 9 9 9 76 65 65 65 65 65 38 38 38 38 70 70 70 75
 75 75 75 75 57 57 9 9 9 9 76 76 29 65 65 65 65 38 38 38
 38 38 38 38 75 75 75 75 75 75 75 75 103 103 103 76 76 29 29 65
 65 65 65 38 38 38 38 38 75 75 75 75 75 75 75 75 75 103 103 103
 76 76 29 29 65 65 65 65 22 22 22 22 79 79 75 75 75 75 75 75
 75 75 42 42 42 76 76 29 65 65 65 65 65 22 22 22 22 79 79 79
 75 75 75 75 75 43 43 42 42 42 15 15 15 65 19 19 19 22 22 22
 22 22 79 79 79 75 75 43 43 43 43 43 43 42 42 15 15 15 19 19
 19 19 19 22 22 22 22 53 79 79 53 43 43 43 43 43 43 43 43 43
 15 15 15 19 19 19 19 19 19 22 22 53 53 53 53 53 43 43 43 43
 43 43 43 43 43 85 85 85 19 19 19 19 19 19 100 100 53 53 53 53
 53 53 43 43 43 43 43 43 43 43 85 85 85 19 19 19 19 19 100 100
 100 100 53 53 53 53 53 53 43 43 43 43 43 43 43 85 85 85 85 19
 19 19 19 35 35 100 100 53 53 53 53 53 53 43 43 43 43 43 43 85
 85 85 85 85 97 97 19 19 35 35 100 100 100 53 53 53 53 53 43 43
 63 63 63 63 85 85 85 97 97 97 97 97 97 35 35 35 100 100 100 53
 53 53 53 63 63 63 63 63 63 63 97 97 97 97 97 97 97 97 35 35
 35 35 35 100 53 49 49 49 49 63 63 63 63 63 63 97 97 97 97 97
 97 97 97 97 35 35 90 90 90 90 49 49 49 49 63 63 63 63 63 63
 97 97 97 97 97 97 97 97 97 86 86 90 90 90 49 49 49 49 49 49
 49 63 63 63 97 97 97 97 97 97 97 97 97 86 86 86 86 86 86 49
 49 49 49 49 18 18 18 18 18 97 97 97 97 97 97 97 97 86 86 86
 86 86 86 86 90 49 49 49 49 18 18 18 18 18 97 97 97 97 97 97
 97 97 86 86 86 86 86 86 86 49 49 49 49 49 18 18 18 18 18 97
 97 97 97 97 97 97 86 86 86 86 86 86 86 86 86 49 49 49 18 18
 18 18 18 18 18 9 97 97 97 97 97 86 86 86 86 86 86 86 86 86
 49 49 49 18 18 18 18 18 9 9 9 9 48 48 97 97 86 86 86 86
 86 86 86 86 86 49 49 57 57 18 18 9 9 9 9 9 9 48 48 97
 86 86 86 86 86 86 70 70 70 70 70 57 57 57 57 9 9 9 9 9
 9 9 48 48 38 38 38 38 38 38 70 70 70 70 70 70 57 57 57 57
 57 9 9 9 9 9 9 48 65 38 38 38 38 38 38 38 70 70 70 75
 75 75 75 57 57 57 9 9 9 9 76 76 29 65 65 38 38 38 38 38
 38 38 38 38 75 75 75 75 75 75 57 9 9 9 9 76 76 29 29 65
 65 38 38 38 38 38 38 38 38 75 75 75 75 75 75 75 75 9 9 9
 76 76 29 29 29 65 65 38 38 38 38 38 38 38 75 75 75 75 75 75
 75 75 75 103 84 76 76 29 29 91 91 65 38 38 38 38 38 79 79 79
 75 75 75 75 75 75 75 42 42 84 76 76 91 91 91 91 91 38 38 22
 22 22 79 79 79 75 75 75 75 75 43 43 42 42 42 15 15 91 91 91
 91 91 22 22 22 22 22 79 79 79 75 75 75 43 43 43 43 43 43 43
 15 15 15 91 91 91 19 19 22 22 22 22 79 79 79 53 53 43 43 43
 43 43 43 43 43 85 85 85 19 19 19 19 19 19 22 22 53 53 53 53
 53 53 43 43 43 43 43 43 43 43 85 85 85 85 19 19 19 19 19 35
 35 53 53 53 53 53 53 43 43 43 43 43 43 43 85 85 85 85 85 85
 19 19 35 35 35 35 53 53 53 53 53 53 53 43 43 43 43 43 43 85
 85 85 85 85 85 19 35 35 35 35 35 35 53 53 53 53 53 53 43 43
 43 43 63 99 85 85 85 85 85 85 19 35 35 35 35 35 35 35 53 53
 53 53 53 43 63 63 63 63 63 85 85 85 85 85 97 97 97 35 35 35
 35 35 35 35 53 53 53 53 63 63 63 63 63 63 85 85 97 97 97 97
 97 97 35 35 35 35 35 35 35 49 49 49 49 49 63 63 63 63 99 99
 97 97 97 97 97 97 97 97 35 35 35 35 35 35 49 49 49 49 49 63
 63 63 63 99 99 97 97 97 97 97 97 97 97 97 35 86 86 90 90 49
 49 49 49 49 49 49 63 63 99 97 97 97 97 97 97 97 97 97 86 86
 86 86 86 86 49 49 49 49 49 49 18 18 18 97 97 97 97 97 97 97
 97 97 86 86 86 86 86 86 86 49 49 49 49 49 49 18 18 18 18 97
 97 97 97 97 97 97 97 86 86 86 86 86 86 86 49 49 49 49 49 49
 18 18 18 18 97 97 97 97 97 97 97 86 86 86 86 86 86 86 86 49
 49 49 49 49 18 18 18 18 18 18 9 48 48 48 48 48 86 86 86 86
 86 86 86 86 49 49 49 49 49 18 18 18 18 102 102 9 48 48 48 48
 48 86 86 86 86 86 86 86 86 86 49 49 88 57 18 18 9 9 9 9
 9 48 48 48 48 38 38 38 38 38 38 38 70 70 70 88 88 88 57 57
 9 9 9 9 9 9 48 48 48 38 38 38 38 38 38 38 38 70 70 70
 88 88 88 57 57 57 9 9 9 9 9 1 48 48 38 38 38 38 38 38
 38 38 38 38 75 75 75 75 75 57 57 9 9 9 9 1 76 29 38 38
 38 38 38 38 38 38 38 38 38 75 75 75 75 75 75 75 9 9 9 9
 76 76 29 29 38 38 38 38 38 38 38 38 38 38 75 75 75 75 75 75
 75 75 9 9 9 76 76 29 29 91 91 38 38 38 38 38 38 38 38 75
 75 75 75 75 75 75 75 84 84 84 76 76 29 91 91 91 91 38 38 38
 38 38 79 79 75 75 75 75 75 75 75 75 84 84 84 76 76 91 91 91
 91 91 38 38 38 38 38 79 79 79 75 75 75 75 75 75 75 84 84 84
 91 91 91 91 91 91 91 91 38 38 38 38 79 79 79 75 75 75 43 43
 43 43 43 84 84 85 15 91 91 91 91 91 91 38 38 38 38 79 79 53
 53 43 43 43 43 43 43 43 43 43 85 85 85 91 91 91 91 91 38 35
 35 35 53 53 53 53 53 43 43 43 43 43 43 43 85 85 85 85 85 19
 19 19 35 35 35 35 35 53 53 53 53 53 53 43 43 43 43 43 43 85
 85 85 85 85 85 85 35 35 35 35 35 35 53 53 53 53 53 53 43 43
 43 43 99 85 85 85 85 85 85 85 85 35 35 35 35 35 35 53 53 53
 53 53 53 53 43 99 99 99 99 85 85 85 85 85 85 35 35 35 35 35
 35 35 35 53 53 53 53 53 53 99 63 63 63 99 85 85 85 85 85 97
 35 35 35 35 35 35 35 35 35 35 53 53 49 49 63 63 63 63 99 85
 85 85 85 97 97 97 35 35 35 35 35 35 35 35 35 49 49 49 49 49
 63 63 99 99 99 97 97 97 97 97 97 97 35 35 35 35 35 35 35 49
 49 49 49 49 49 99 99 99 99 99 97 97 97 97 97 97 97 35 35 35
 35 35 35 35 49 49 49 49 49 49 49 99 99 99 99 97 97 97 97 97
 97 97 97 86 86 86 86 86 49 49 49 49 49 49 49 49 18 99 99 97
 97 97 97 97 97 97 97 97 86 86 86 86 86 49 49 49 49 49 49 49
 49 18 18 18 97 97 97 97 97 97 97 97 86 86 80 86 86 86 49 49
 49 49 49 49 49 49 18 102 102 102 102 97 48 48 48 97 97 86 80 80
 80 80 86 86 49 49 49 49 49 49 102 102 102 102 102 102 48 48 48 48
 48 86 86 86 80 80 80 86 24 49 49 49 49 49 49 102 102 102 102 102
 102 48 48 48 48 48 48 86 86 80 80 86 86 24 24 49 49 88 88 102
 102 102 102 102 102 102 48 48 48 48 48 38 38 38 38 38 38 38 38 88
 88 88 88 88 102 102 102 102 102 102 102 48 48 48 48 38 38 38 38 38
 38 38 38 38 88 88 88 88 88 88 102 102 102 102 102 1 1 1 48 38
 38 38 38 38 38 38 38 38 38 75 75 75 75 88 88 102 102 102 102 102
 1 1 1 1 38 38 38 38 38 38 38 38 38 38 75 75 75 75 75 75
 75 102 102 102 1 1 1 1 74 74 38 38 38 38 38 38 38 38 38 75
 75 75 75 75 75 75 75 84 84 1 76 76 29 74 91 91 38 38 38 38
 38 38 38 75 75 75 75 75 75 75 75 75 84 84 84 84 76 91 91 91
 91 91 38 38 38 38 38 77 77 77 75 75 75 75 75 75 84 84 84 84
 84 76 91 91 91 91 91 91 38 38 38 38 77 77 77 75 75 75 75 75
 75 84 84 84 84 28 28 91 91 91 91 91 91 38 38 38 77 77 77 77
 75 75 75 43 43 43 43 84 84 84 28 28 28 91 91 91 91 91 38 38
 38 77 77 77 77 53 53 43 43 43 43 43 3 3 3 85 85 85 91 91
 91 91 91 35 35 35 35 54 53 53 53 53 43 43 43 43 43 43 3 85
 85 85 85 85 91 91 91 35 35 35 35 35 53 53 53 53 53 53 43 43
 43 99 99 99 85 85 85 85 85 85 85 35 35 35 35 35 35 35 53 53
 53 53 53 53 99 99 99 99 99 85 85 85 85 85 85 85 35 35 35 35
 35 35 35 53 53 53 53 53 53 99 99 99 99 99 85 85 85 85 85 85
 35 35 35 35 35 35 35 35 35 53 53 53 53 53 99 99 99 99 99 85
 85 85 85 85 35 35 35 35 35 35 35 35 35 35 35 53 49 49 49 99
 99 99 99 99 85 85 85 85 30 97 35 35 35 35 35 35 35 35 35 35
 49 49 49 49 99 99 99 99 99 99 85 97 97 97 97 97 35 35 35 35
 35 35 35 35 49 49 49 49 49 49 99 99 99 99 99 97 97 97 97 97
 97 35 35 35 35 35 35 35 35 49 49 49 49 49 49 49 99 99 99 99
 97 97 97 97 97 97 97 35 35 35 35 39 39 39 49 49 49 49 49 49
 49 99 99 99 99 97 97 97 97 97 97 97 97 86 86 86 39 39 49 49
 49 49 49 49 49 49 18 18 18 97 102 97 37 37 37 37 37 37 80 80
 80 80 80 49 49 49 49 49 49 49 49 102 102 102 102 102 102 48 48 37
 37 37 37 80 80 80 80 80 24 49 49 49 49 49 49 102 102 102 102 102
 102 102 48 48 48 37 37 37 80 80 80 80 80 24 24 49 49 49 49 49
 102 102 102 102 102 102 48 48 48 48 48 37 37 80 80 80 80 52 24 24
 24 88 88 88 102 102 102 102 102 102 102 102 48 48 48 48 38 38 38 38
 80 52 52 52 88 88 88 88 88 88 102 102 102 102 102 102 1 48 48 48
 38 38 38 38 38 38 38 38 88 88 88 88 88 88 88 102 102 102 102 102
 1 1 1 1 38 38 38 38 38 38 38 38 38 38 88 88 88 88 88 88
 102 102 102 102 102 1 1 1 1 74 38 38 38 38 38 38 38 38 38 75
 75 75 88 75 75 102 102 102 102 1 1 1 1 74 74 74 38 38 38 38
 38 38 38 38 75 75 75 75 75 75 75 84 84 84 1 44 44 44 74 74
 74 38 38 38 38 38 38 38 77 75 75 75 75 75 75 75 84 84 84 84
 84 44 32 32 74 74 91 38 38 38 38 38 77 77 77 75 75 75 75 75
 75 84 84 84 84 84 44 32 32 91 91 91 91 38 38 38 38 77 77 77
 75 75 75 75 75 75 84 84 84 84 28 28 28 32 91 91 91 91 38 38
 38 38 77 77 77 14 14 75 75 43 84 84 84 84 84 28 28 28 91 91
 91 91 91 91 38 38 54 54 54 54 54 14 43 43 43 43 3 3 3 3
 28 28 28 91 91 91 91 91 35 35 35 54 54 54 54 54 53 43 43 43
 99 99 3 3 3 85 85 85 85 91 91 35 35 35 35 35 35 54 54 54
 54 53 53 43 99 99 99 99 99 85 85 85 85 85 85 85 35 35 35 35
 35 35 35 54 54 54 53 53 53 99 99 99 99 99 85 85 85 85 85 85
 85 35 35 35 35 35 35 35 54 54 53 53 53 53 99 99 99 99 99 85
 85 85 85 30 30 30 35 35 35 35 35 35 35 35 35 53 53 53 53 99
 99 99 99 99 85 85 85 30 30 30 30 35 35 35 35 35 35 35 35 35
 53 49 49 99 99 99 99 99 99 85 85 85 30 30 30 35 35 35 35 35
 35 35 35 35 35 49 49 49 49 99 99 99 99 99 99 85 85 30 30 30
 35 35 35 35 35 35 35 35 35 49 49 49 49 49 49 99 99 99 99 99
 97 97 97 97 97 97 35 35 35 35 35 39 35 35 49 49 49 49 49 49
 99 99 99 99 99 97 97 97 97 97 97 35 35 35 35 39 39 39 39 49
 49 49 49 49 49 49 99 99 99 99 97 97 97 97 37 37 37 35 80 80
 39 39 39 39 49 49 49 49 49 49 49 99 99 99 99 102 102 37 37 37
 37 37 37 80 80 80 39 24 24 24 49 49 49 49 49 102 102 102 102 102
 102 102 37 37 37 37 37 37 80 80 80 80 52 24 24 24 24 49 49 49
 102 102 102 102 102 102 102 48 37 37 37 37 37 80 80 80 52 52 24 24
 24 24 24 49 102 102 102 102 102 102 102 102 48 48 37 37 37 37 37 80
 80 52 52 24 24 24 24 88 88 88 102 102 102 102 102 102 102 48 48 48
 37 37 37 37 80 52 52 52 52 24 88 88 88 88 88 102 102 102 102 102
 102 1 1 48 48 38 38 38 38 38 38 52 52 52 88 88 88 88 88 88
 102 102 102 102 102 1 1 1 1 1 38 38 38 38 38 38 38 40 40 88
 88 88 88 88 88 102 102 102 102 102 1 1 1 1 74 74 38 38 38 38
 38 38 40 40 40 88 88 88 88 88 102 102 102 102 1 1 1 1 74 74
 74 74 38 38 38 38 38 40 40 21 21 75 75 75 75 75 84 84 1 1
 44 44 44 74 74 74 74 38 38 38 38 38 21 21 21 21 14 14 14 75
 75 84 84 84 84 44 44 32 32 74 74 74 38 38 38 38 38 21 21 21
 21 14 14 14 75 75 84 84 84 84 84 44 32 32 32 91 91 91 38 38
 38 38 21 21 21 21 14 14 14 14 84 84 84 84 84 28 28 28 32 32
 91 91 91 38 38 38 38 77 21 21 14 14 14 14 14 84 84 84 84 84
 28 28 28 28 91 91 91 91 91 38 35 54 54 54 54 14 14 14 14 14
 3 3 3 3 3 28 28 28 28 91 91 91 91 35 35 35 54 54 54 54
 54 54 14 14 99 3 3 3 3 3 85 85 85 85 85 91 35 35 35 35
 35 35 54 54 54 54 54 54 99 99 99 99 99 3 3 85 85 85 85 85
 85 35 35 35 35 35 35 54 54 54 54 54 54 99 99 99 99 99 99 85
 85 85 85 30 30 30 35 35 35 35 35 35 35 54 54 54 54 54 99 99
 99 99 99 99 85 85 85 30 30 30 30 35 35 35 35 35 35 35 35 54
 54 54 99 99 99 99 99 99 99 85 85 85 30 30 30 30 35 35 35 35
 35 35 35 35 35 35 49 99 99 99 99 99 99 99 99 85 30 30 30 30
 30 35 35 35 35 35 35 35 35 35 35 49 49 99 99 99 99 99 99 99
 85 30 30 30 30 30 35 35 35 35 35 35 35 35 35 49 49 49 49 99
 99 99 99 99 99 97 30 30 30 30 35 35 35 35 35 35 39 39 35 49
 49 49 49 49 49 99 99 99 99 99 37 37 37 37 37 37 37 35 35 35
 39 39 39 39 49 49 49 49 49 49 99 99 99 99 99 37 37 37 37 37
 37 37 37 80 80 39 39 39 39 49 49 49 49 49 49 49 99 99 99 99
 102 37 37 37 37 37 37 37 80 80 80 39 24 24 24 24 24 24 49 49
 102 102 102 102 102 102 37 37 37 37 37 37 37 80 80 80 52 52 24 24
 24 24 24 24 24 102 102 102 102 102 102 102 37 37 37 37 37 37 80 80
 80 52 52 24 24 24 24 24 24 24 102 102 102 102 102 102 102 37 37 37
 37 37 37 80 80 52 52 52 52 24 24 24 24 24 102 102 102 102 102 102
 102 102 37 37 37 37 37 37 37 80 52 52 52 52 24 24 88 88 88 88
 102 102 102 102 102 102 1 1 37 37 37 37 73 73 73 73 52 52 52 24
 88 88 88 88 88 102 102 102 102 102 1 1 1 1 74 73 73 73 73 73
 73 73 40 40 40 88 88 88 88 88 102 102 102 102 102 1 1 1 1 74
 74 74 73 73 73 73 73 40 40 40 88 88 88 88 88 102 102 102 102 1
 1 1 1 1 74 74 74 73 73 73 73 73 40 40 21 21 75 88 14 14
 14 84 84 84 1 44 44 44 74 74 74 74 74 73 73 73 73 40 21 21
 21 14 14 14 14 14 84 84 84 84 84 44 32 32 74 74 74 74 73 73
 73 73 21 21 21 21 14 14 14 14 14 84 84 84 84 84 44 32 32 32
 74 74 73 73 73 73 73 21 21 21 21 14 14 14 14 14 84 84 84 84
 28 28 32 32 32 32 73 73 73 73 73 73 21 21 21 14 14 14 14 14
 14 84 84 84 84 28 28 28 28 32 91 91 55 66 66 66 54 54 54 54
 14 14 14 14 14 14 3 3 3 3 28 28 28 28 32 55 55 55 66 66
 66 54 54 54 54 54 14 14 14 99 99 3 3 3 3 85 85 85 85 55
 55 55 66 66 66 66 50 54 54 54 54 54 54 99 99 99 99 99 3 3
 85 85 85 85 30 55 55 55 35 35 50 50 54 54 54 54 54 54 99 99
 99 99 99 99 85 85 85 85 30 30 30 55 35 35 35 35 50 50 54 54
 54 54 54 99 99 99 99 99 99 99 85 85 30 30 30 30 35 35 35 35
 35 35 35 69 69 54 54 99 99 99 99 99 99 99 99 85 30 30 30 30
 30 35 35 35 35 35 35 35 69 69 69 69 99 99 99 99 99 99 99 99
 30 30 30 30 30 30 35 35 35 35 35 35 35 69 69 69 49 49 99 99
 99 99 99 99 99 30 30 30 30 30 30 35 35 35 35 35 35 35 35 35
 49 49 49 99 99 99 99 99 99 99 30 30 30 30 30 37 35 35 35 35
 35 39 35 35 35 49 49 49 49 99 99 99 99 99 99 37 37 37 37 37
 37 37 35 35 35 39 39 39 24 24 24 49 49 49 99 99 99 99 99 99
 37 37 37 37 37 37 37 37 80 80 39 39 39 24 24 24 24 49 49 49
 99 99 99 99 99 37 37 37 37 37 37 37 37 37 80 80 24 24 24 24
 24 24 24 24 24 102 102 102 102 102 102 37 37 37 37 37 37 37 37 80
 80 52 24 24 24 24 24 24 24 24 102 102 102 102 102 102 37 37 37 37
 37 37 37 37 80 52 52 52 24 24 24 24 24 24 24 102 102 102 102 102
 102 102 37 37 37 37 37 37 37 80 52 52 52 52 24 24 24 24 24 24
 102 102 102 102 102 102 102 37 37 37 37 37 37 73 73 52 52 52 52 24
 24 24 24 24 24 102 102 102 102 102 102 102 37 37 37 37 37 73 73 73
 73 52 52 52 24 24 24 88 88 88 102 96 96 96 96 1 1 1 1 73
 73 73 73 73 73 73 73 40 40 40 24 88 88 88 88 96 96 96 96 96
 1 1 1 1 74 73 73 73 73 73 73 73 40 40 40 40 62 62 62 62
 62 96 96 96 96 1 1 1 1 74 74 73 73 73 73 73 73 40 40 40
 62 62 62 62 62 62 84 96 96 96 44 44 44 74 74 74 73 73 73 73
 73 73 73 62 21 21 14 14 14 14 14 84 84 84 84 84 44 32 32 74
 74 73 73 73 73 73 73 73 21 21 21 14 14 14 14 14 84 84 84 84
 84 44 32 32 32 73 73 73 73 73 73 73 62 62 21 14 14 14 14 14
 14 84 84 84 84 28 28 32 32 32 73 73 73 73 73 73 73 62 62 21
 14 14 14 14 14 14 84 84 84 84 28 28 28 28 32 55 55 55 73 73
 73 73 54 54 14 14 14 14 14 14 14 3 3 3 3 28 28 28 28 55
 55 55 55 66 66 66 66 54 54 54 54 14 14 14 14 99 3 3 3 3
 85 85 85 55 55 55 55 55 66 66 66 50 54 54 54 54 54 54 99 99
 99 99 99 3 3 85 85 85 85 55 55 55 55 55 66 50 50 50 54 54
 54 54 54 99 99 99 99 99 99 99 85 85 85 30 55 55 55 55 55 35
 50 50 50 54 54 54 54 99 99 99 99 99 99 99 99 85 85 30 30 30
 55 55 55 55 35 50 50 69 69 69 69 69 99 99 99 99 99 99 99 99
 85 30 30 30 30 55 55 55 35 35 35 35 69 69 69 69 69 99 99 99
 99 99 99 99 99 30 30 30 30 30 55 35 35 35 35 35 35 69 69 69
 69 69 99 99 99 99 99 99 99 99 30 30 30 30 30 30 35 35 35 35
 35 35 35 69 69 69 69 49 99 99 99 99 99 99 99 37 37 37 37 37
 37 35 35 35 35 35 35 35 35 24 24 24 49 99 99 99 99 99 99 99
 37 37 37 37 37 37 37 35 35 35 35 39 24 24 24 24 24 24 24 99
 99 99 99 99 99 37 37 37 37 37 37 37 37 80 80 39 39 24 24 24
 24 24 24 24 99 99 99 99 99 99 37 37 37 37 37 37 37 37 37 80
 24 24 24 24 24 24 24 24 24 24 24 102 102 102 102 37 37 37 37 37
 37 37 37 37 37 52 52 24 24 24 24 24 24 24 24 24 102 102 102 102
 102 37 37 37 37 37 37 37 37 37 52 52 52 24 24 24 24 24 24 24
 102 102 102 102 102 102 37 37 37 37 37 37 37 37 37 52 52 52 24 24
 24 24 24 24 24 102 96 96 96 96 96 37 37 37 37 37 37 37 37 73
 52 52 52 52 24 24 24 24 24 24 96 96 96 96 96 96 96 37 37 37
 37 73 73 73 73 73 52 52 52 24 24 24 24 24 24 96 96 96 96 96
 96 1 1 37 37 73 73 73 73 73 73 73 40 40 62 62 62 62 88 88
 96 96 96 96 96 96 1 1 1 73 73 73 73 73 73 73 73 40 40 62
 62 62 62 62 62 96 96 96 96 96 96 1 1 73 73 73 73 73 73 73
 73 73 73 40 62 62 62 62 62 62 62 62 96 96 96 44 44 44 73 73
 73 73 73 73 73 73 73 62 62 62 62 62 62 62 62 62 84 96 96 96
 51 44 51 32 73 73 73 73 73 73 73 73 62 62 62 62 14 14 14 14
 14 84 84 84 84 51 51 51 32 73 73 73 73 73 73 73 73 62 62 62
 62 14 14 14 14 14 84 84 84 84 51 51 51 51 73 73 73 73 73 73
 73 73 62 62 62 62 14 14 14 14 14 25 25 25 25 51 51 51 51 55
 55 55 55 55 73 73 73 62 62 62 14 14 14 14 14 14 25 25 25 25
 51 51 51 51 55 55 55 55 55 66 66 66 54 54 54 54 14 14 14 14
 99 25 25 25 25 51 51 51 55 55 55 55 55 55 66 66 50 54 54 54
 54 54 14 99 99 99 99 99 25 25 51 51 51 55 55 55 55 55 55 55
 50 50 50 54 54 54 54 99 99 99 99 99 6 6 6 85 85 34 34 55
 55 55 55 55 55 50 50 50 69 54 54 54 99 99 99 99 6 6 6 6
 85 34 34 34 34 55 55 55 55 55 50 50 69 69 69 69 69 99 99 99
 99 6 6 6 6 85 30 30 34 34 55 55 55 55 55 35 35 69 69 69
 69 69 99 99 99 99 99 6 6 6 30 30 30 30 34 55 55 55 55 35
 35 35 69 69 69 69 69 99 99 99 99 99 99 6 6 37 37 30 30 30
 55 55 35 35 35 35 35 35 69 69 24 24 99 99 99 99 99 99 99 99
 37 37 37 37 37 37 37 35 35 35 35 35 35 24 24 24 24 24 99 99
 99 99 99 99 99 37 37 37 37 37 37 37 37 35 35 35 24 24 24 24
 24 24 24 24 99 99 99 99 99 99 37 37 37 37 37 37 37 37 37 87
 24 24 24 24 24 24 24 24 24 24 99 99 99 99 33 37 37 37 37 37
 37 37 37 37 37 24 24 24 24 24 24 24 24 24 24 24 33 33 33 33
 37 37 37 37 37 37 37 37 37 37 52 24 24 24 24 24 24 24 24 24
 24 96 96 102 33 37 37 37 37 37 37 37 37 37 37 52 52 24 24 24
 24 24 24 24 24 24 96 96 96 96 96 37 37 37 37 37 37 37 37 37
 52 52 52 24 24 24 24 24 24 24 24 96 96 96 96 96 37 37 37 37
 37 37 37 73 73 73 52 52 24 24 24 24 24 24 24 96 96 96 96 96
 96 96 37 37 37 37 73 73 73 73 73 73 52 24 24 24 24 24 24 24
 2 96 96 96 96 96 96 37 73 73 73 73 73 73 73 73 73 73 62 62
 62 62 62 62 2 2 96 96 96 96 96 96 1 73 73 73 73 73 73 73
 73 73 62 62 62 62 62 62 62 2 2 96 96 96 96 96 96 73 73 73
 73 73 73 73 73 73 73 62 62 62 62 62 62 62 62 2 2 96 96 96
 96 96 73 73 73 73 73 73 73 73 73 73 62 62 62 62 62 62 62 62
 62 96 96 96 96 51 51 51 51 73 73 73 73 73 73 73 73 62 62 62
 62 62 62 62 62 62 62 84 84 51 51 51 51 51 73 73 73 73 73 73
 73 73 62 62 62 62 62 62 14 62 62 25 25 25 51 51 51 51 51 51
 73 73 73 73 73 73 73 62 62 62 62 62 14 14 14 14 25 25 25 51
 51 51 51 51 51 55 55 55 73 73 73 73 62 62 62 62 62 14 14 14
 25 25 25 25 25 51 51 51 51 55 55 55 55 55 55 55 55 62 62 62
 92 62 14 14 14 25 25 25 25 51 51 51 51 51 55 55 55 55 55 55
 55 55 54 54 92 92 92 92 99 99 6 6 25 25 51 51 51 51 55 55
 55 55 55 55 55 55 50 50 54 54 92 92 92 99 99 6 6 6 6 6
 6 34 34 34 34 55 55 55 55 55 55 50 50 69 54 54 92 99 99 99
 6 6 6 6 6 6 34 34 34 34 55 55 55 55 55 55 50 69 69 69
 69 69 99 99 99 6 6 6 6 6 6 34 34 34 34 55 55 55 55 55
 55 35 69 69 69 69 69 99 99 99 6 6 6 6 6 6 34 34 34 34
 55 55 55 55 55 55 35 69 69 69 12 12 99 99 99 99 6 6 6 6
 37 37 37 34 58 58 58 58 58 58 35 35 35 69 24 24 24 24 99 99
 99 99 6 6 6 37 37 37 37 37 58 58 58 58 87 87 87 24 24 24
 24 24 24 24 99 99 99 99 99 6 37 37 37 37 37 37 37 37 87 87
 87 24 24 24 24 24 24 24 24 24 99 99 99 99 33 37 37 37 37 37
 37 37 37 87 87 87 24 24 24 24 24 24 24 24 24 99 99 33 33 33
 37 37 37 37 37 37 37 37 37 87 24 24 24 24 24 24 24 24 24 24
 24 33 33 33 33 37 37 37 37 37 37 37 37 37 37 24 24 24 24 24
 24 24 24 24 24 24 33 33 33 33 26 26 37 37 37 37 37 37 37 37
 52 89 89 24 24 24 24 24 24 24 24 33 33 33 33 26 26 37 37 37
 37 37 37 37 37 52 89 89 89 24 24 24 24 24 24 24 96 96 96 96
 96 26 26 37 37 37 37 37 73 73 73 89 89 89 89 24 24 24 24 2
 2 96 96 96 96 96 26 26 37 37 37 73 73 73 73 73 73 52 62 62
 62 62 24 24 2 2 96 96 96 96 96 96 26 73 73 73 73 73 73 73
 73 73 62 62 62 62 62 62 2 2 2 2 96 96 96 96 96 96 73 73
 73 73 73 73 73 73 73 62 62 62 62 62 62 62 2 2 2 96 96 96
 96 96 73 73 73 73 73 73 73 73 73 73 62 62 62 62 62 62 62 2
 2 2 96 96 96 51 51 51 73 73 73 73 73 73 73 73 73 62 62 62
 62 62 62 62 62 2 2 64 64 64 51 51 51 51 73 73 73 73 73 73
 73 73 62 62 62 62 62 62 62 62 62 16 16 64 51 51 51 51 51 51
 73 73 73 73 73 73 73 62 62 62 62 62 62 62 62 62 16 16 51 51
 51 51 51 51 51 73 73 73 73 73 73 73 62 62 62 62 62 62 62 62
 16 16 25 25 51 51 51 51 51 51 55 55 55 73 73 73 73 62 62 62
 62 62 62 62 62 16 25 25 25 51 51 51 51 51 51 55 55 55 55 55
 55 55 62 62 92 92 92 62 62 20 20 20 20 20 51 51 51 51 51 55
 55 55 55 55 55 55 55 92 92 92 92 92 92 92 20 20 20 20 20 20
 20 51 51 51 55 55 55 55 55 55 55 55 12 12 92 92 92 92 6 6
 6 6 6 6 20 6 51 34 34 55 55 55 55 55 55 55 55 12 12 12
 12 92 92 6 6 6 6 6 6 6 6 6 34 34 34 55 55 55 55 55
 55 55 12 12 12 12 12 6 6 6 6 6 6 6 6 6 6 34 34 34
 55 55 55 55 55 55 12 12 12 12 12 12 12 6 6 6 6 6 6 6
 6 6 34 34 34 55 58 58 58 55 55 12 12 12 12 12 12 12 6 6
 6 6 6 6 6 37 37 37 34 58 58 58 58 58 58 35 12 12 12 12
 12 24 24 99 99 6 6 6 6 6 37 37 37 37 58 58 58 58 58 87
 87 87 24 24 24 24 24 24 24 99 99 99 6 6 6 37 37 37 37 37
 37 58 58 87 87 87 87 24 24 24 24 24 24 24 24 99 99 33 33 33
 37 37 37 37 37 37 37 37 87 87 87 87 24 24 24 24 24 24 24 24
 24 33 33 33 33 33 37 37 37 37 37 37 37 87 87 87 24 24 24 78
 78 78 24 24 24 33 33 33 33 33 33 37 37 37 37 37 37 37 37 87
 81 24 24 24 78 78 78 24 24 24 33 33 33 33 33 26 26 37 37 37
 37 37 37 37 37 89 89 89 89 78 78 78 24 24 24 33 33 33 33 33
 26 26 26 37 37 37 37 37 37 37 89 89 89 89 89 24 24 24 24 24
 33 33 33 96 96 26 26 26 37 37 37 37 73 46 46 46 46 89 89 89
 24 24 24 24 2 2 2 96 96 96 96 26 26 37 37 37 73 73 46 46
 46 46 46 89 62 24 62 62 2 2 2 2 96 96 96 96 96 26 37 73
 73 73 73 73 46 46 46 62 62 62 62 62 62 2 2 2 2 2 71 96
 96 96 96 73 73 73 73 73 73 73 46 46 62 62 62 62 62 62 2 2
 2 2 71 71 71 71 71 73 73 73 73 73 73 73 73 73 73 62 62 62
 62 62 62 62 2 2 2 71 71 71 51 51 51 73 73 73 73 73 73 73
 73 73 62 62 62 62 62 62 62 62 2 2 64 64 64 51 51 51 51 73
 73 73 73 73 73 73 73 62 62 62 62 62 62 62 62 16 16 16 64 64
 51 51 51 51 51 73 73 73 73 73 73 73 62 62 62 62 62 62 62 62
 16 16 16 16 51 51 51 51 51 51 73 73 73 73 73 73 73 62 62 62
 62 62 62 62 62 16 16 16 51 51 51 51 51 51 51 51 55 55 73 73
 73 73 62 62 62 62 62 62 62 62 16 20 20 20 51 51 51 51 51 51
 55 55 55 55 55 55 55 59 92 92 92 92 92 92 20 20 20 20 20 20
 51 51 51 51 55 55 55 55 55 55 55 55 92 92 92 92 92 92 92 20
 20 20 20 20 20 20 51 51 51 55 55 55 55 55 55 55 55 12 12 92
 92 92 92 92 6 6 6 20 20 20 20 51 51 34 55 55 55 55 55 55
 55 12 12 12 12 12 92 92 92 6 6 6 6 6 6 6 6 34 34 55
 55 55 55 55 55 55 12 12 12 12 12 12 12 45 45 6 6 6 6 6
 6 6 34 34 55 55 55 55 55 55 55 12 12 12 12 12 12 12 45 45
 45 6 6 6 6 6 6 13 13 55 58 58 58 58 55 55 12 12 12 12
 12 12 12 45 45 45 45 6 6 6 6 37 13 13 58 58 58 58 58 58
 55 12 12 12 12 12 12 12 45 45 45 45 6 6 6 37 37 37 13 58
 58 58 58 58 87 87 87 12 12 24 24 24 24 24 45 45 45 6 6 6
 37 37 37 37 37 58 58 58 87 87 87 87 24 24 24 24 24 24 24 24
 45 33 33 33 33 37 37 37 37 37 37 37 58 87 87 87 87 24 24 24
 24 24 24 24 24 33 33 33 33 33 33 33 37 37 37 37 37 37 87 87
 61 61 81 24 78 78 78 24 24 24 33 33 33 33 33 33 33 37 37 37
 37 37 37 37 87 81 61 61 78 78 78 78 24 24 24 33 33 33 33 33
 33 26 37 37 37 37 37 37 37 81 81 81 89 89 78 78 78 24 24 24
 33 33 33 33 33 26 26 26 37 37 37 37 37 37 81 81 81 89 89 89
 78 24 24 24 24 33 33 33 33 33 26 26 26 37 37 37 37 46 46 46
 46 46 89 89 89 24 24 24 24 2 2 2 33 33 33 96 26 26 37 37
 46 46 46 46 46 46 46 46 62 62 62 62 62 2 2 2 2 71 71 71
 71 71 26 73 73 73 46 46 46 46 46 46 46 62 62 62 62 62 2 2
 2 2 71 71 71 71 71 71 73 73 73 73 46 46 46 46 46 62 62 62
 62 62 62 2 2 2 2 71 71 71 71 71 71 73 73 73 73 73 46 46
 46 46 62 62 62 62 62 62 62 2 2 2 71 71 71 64 64 64 73 73
 73 73 73 73 73 73 73 62 62 62 62 62 62 62 62 2 16 64 64 64
 51 51 51 51 73 73 73 73 73 73 73 73 62 62 62 62 62 62 62 16
 16 16 16 64 64 51 51 51 51 8 73 73 73 73 73 73 73 62 62 62
 62 62 62 62 16 16 16 16 16 51 51 51 51 51 8 8 8 73 73 73
 73 73 62 62 62 62 62 62 62 16 16 16 16 16 51 51 51 51 51 8
 8 8 55 27 27 27 27 62 62 62 62 62 62 62 16 16 16 20 20 51
 51 51 51 51 8 8 55 55 55 27 27 27 59 59 92 92 92 62 62 20
 20 20 20 20 20 20 51 51 51 55 55 55 55 55 55 55 27 59 59 92
 92 92 92 92 20 20 20 20 20 20 20 20 51 51 55 55 55 55 55 55
 55 12 59 59 59 92 92 92 92 20 20 20 20 20 20 20 20 51 13 55
 55 55 55 55 55 55 12 12 12 12 12 12 12 45 45 45 45 6 20 20
 6 6 13 13 55 55 55 55 55 55 55 12 12 12 12 12 12 12 45 45
 45 45 45 6 6 6 13 13 13 13 13 55 55 55 55 12 12 12 12 12
 12 12 12 45 45 45 45 45 6 6 6 13 13 13 13 13 58 58 58 55
 12 12 12 12 12 12 12 12 45 45 45 45 45 45 6 13 13 13 13 13
 13 58 58 58 58 12 12 12 12 12 12 12 12 45 45 45 45 45 45 45
 33 13 13 13 13 13 58 58 58 87 87 87 12 12 12 12 24 24 45 45
 45 45 45 45 45 33 37 13 13 13 13 13 58 58 87 87 87 12 24 24
 24 24 24 24 45 33 33 33 33 33 33 37 37 13 13 13 13 58 87 87
 87 61 81 24 24 24 24 24 24 24 33 33 33 33 33 33 33 37 37 37
 37 37 37 81 61 61 61 81 81 78 78 78 24 24 33 33 33 33 33 33
 33 33 37 37 37 37 37 37 81 81 81 61 61 81 78 78 78 24 24 33
 33 33 33 33 33 33 33 37 37 37 37 37 37 81 81 81 81 81 81 78
 78 78 24 24 33 33 33 33 33 33 33 33 26 37 37 37 37 46 81 81
 81 81 81 89 78 78 78 24 24 2 33 33 33 33 33 33 26 26 37 37
 37 46 46 46 46 46 46 46 89 89 24 24 24 2 2 2 2 33 33 33