# vtk DataFile Version 2.0
Data set from IO Version 6.4.197.9a0dee2
ASCII

DATASET RECTILINEAR_GRID
DIMENSIONS 31 31 31
X_COORDINATES 31 float
-4.700000 4.700000 14.099999 23.500000 32.899998 42.299999 51.699997 61.099995 70.500000 79.900002 89.300003 98.699997 108.099998 117.500000 126.899994 136.300003 145.699997 155.099991 164.500000 173.899994 183.300003 
192.699997 202.099991 211.500000 220.899994 230.299988 239.699997 249.099991 258.499969 267.899963 277.299988 
Y_COORDINATES 31 float
-4.700000 4.700000 14.099999 23.500000 32.899998 42.299999 51.699997 61.099995 70.500000 79.900002 89.300003 98.699997 108.099998 117.500000 126.899994 136.300003 145.699997 155.099991 164.500000 173.899994 183.300003 
192.699997 202.099991 211.500000 220.899994 230.299988 239.699997 249.099991 258.499969 267.899963 277.299988 
Z_COORDINATES 31 float
-4.700000 4.700000 14.099999 23.500000 32.899998 42.299999 51.699997 61.099995 70.500000 79.900002 89.300003 98.699997 108.099998 117.500000 126.899994 136.300003 145.699997 155.099991 164.500000 173.899994 183.300003 
192.699997 202.099991 211.500000 220.899994 230.299988 239.699997 249.099991 258.499969 267.899963 277.299988 
CELL_DATA 27000
SCALARS FeatureIds int 1
LOOKUP_TABLE default
 283 283 283 283 283 128 128 290 290 290 290 290 64 64 64 199 199 199 277 277
 277 297 297 323 24 24 24 24 24 283 283 283 283 283 283 128 128 128 128 290
 290 290 387 387 387 387 199 277 277 277 277 297 297 323 323 24 24 24 24 283
 283 283 283 283 283 128 128 128 128 186 186 387 387 387 387 387 60 60 60 277
 277 297 323 323 323 24 24 24 24 283 283 283 283 131 131 128 128 128 128 186
 186 186 387 387 387 60 60 60 60 60 60 323 323 323 323 323 24 24 24 283
 283 283 131 131 131 128 128 128 128 186 186 186 201 387 60 60 60 60 60 60
 60 124 323 323 323 323 24 24 24 283 283 131 131 131 131 233 128 128 128 128
 201 201 201 201 329 329 329 60 60 60 124 124 124 124 323 228 228 228 228 283
 131 131 131 131 131 233 233 128 128 201 201 201 201 248 248 329 329 329 60 124
 124 124 124 124 124 228 228 228 228 228 287 287 131 131 233 233 233 233 3 3
 201 201 201 248 169 169 329 329 60 124 124 124 124 124 124 228 228 228 228 228
 287 287 287 287 25 25 25 25 3 3 201 201 169 169 169 169 169 169 340 340
 340 340 340 340 250 250 228 228 228 228 287 287 287 287 25 25 25 25 3 3
 3 201 169 169 169 169 169 134 134 340 340 340 340 340 250 250 250 228 228 287
 287 287 287 345 25 25 25 25 3 3 3 169 169 169 169 169 134 134 134 340
 340 340 340 340 250 250 250 151 151 287 287 287 345 345 345 25 25 25 3 3
 3 169 169 169 169 169 134 134 134 134 340 340 174 174 281 281 151 151 151 151
 116 116 116 345 345 25 25 25 3 3 3 169 169 169 169 169 134 134 134 134
 340 174 174 174 281 281 281 151 230 230 116 116 116 116 232 232 232 259 259 259
 259 259 169 169 169 168 168 168 168 168 168 174 174 281 281 281 281 230 230 230
 116 116 116 232 232 232 232 259 259 259 259 58 58 58 168 168 168 168 168 168
 168 20 20 281 281 281 281 281 230 230 275 275 275 232 232 232 232 259 259 259
 259 58 58 58 168 168 168 168 168 168 168 20 20 20 20 281 281 36 230 230
 275 275 275 232 232 232 232 98 259 259 259 58 58 204 204 204 204 168 168 168
 168 20 20 142 142 36 36 36 36 36 45 45 45 282 232 232 98 98 98 259
 259 58 58 204 204 204 204 204 241 241 241 142 142 142 142 36 36 36 36 36
 282 45 282 282 232 232 98 98 98 263 263 263 263 211 211 204 204 204 241 241
 241 14 142 142 142 36 36 36 36 36 36 282 282 282 346 98 98 98 263 263
 263 263 263 159 211 211 211 241 241 241 14 14 14 142 36 36 36 36 36 36
 66 66 66 66 136 136 263 263 263 263 263 263 263 159 159 211 211 241 241 78
 14 14 14 142 36 36 36 36 36 36 66 66 66 66 136 136 136 263 263 263
 263 26 26 26 118 118 118 118 78 78 78 14 14 111 111 111 111 111 111 111
 66 66 66 66 136 136 136 263 263 26 26 26 26 26 118 118 118 118 118 317
 317 317 317 111 111 111 111 111 111 111 373 373 373 373 136 136 136 136 263 26
 26 26 26 26 118 118 118 118 118 317 317 317 123 123 111 111 111 111 111 111
 65 65 65 65 136 136 136 136 26 26 26 26 26 26 118 118 118 118 118 317
 317 317 123 123 268 268 111 111 111 65 65 65 65 65 70 70 70 70 244 244
 26 26 26 158 118 118 118 118 118 317 317 123 123 123 268 268 389 111 111 65
 65 65 65 70 70 70 70 70 244 244 244 158 158 64 64 80 80 80 80 80
 384 102 123 123 268 268 389 389 63 63 63 63 65 70 70 70 70 70 244 244
 244 290 64 64 64 80 80 80 80 80 384 384 384 384 389 389 389 389 63 63
 63 63 65 70 70 70 70 70 244 244 290 290 64 64 64 199 80 80 80 80
 384 384 384 384 389 389 389 389 63 63 283 283 283 70 70 70 70 70 290 290
 290 290 64 64 64 199 199 199 80 80 384 384 384 384 389 389 24 24 283 63
 283 283 283 283 70 70 319 319 319 290 290 290 387 387 387 199 199 199 277 277
 277 277 323 323 24 24 24 24 24 283 283 283 283 283 70 128 128 128 128 186
 290 387 387 387 387 387 199 277 277 277 277 277 323 323 323 24 24 24 24 283
 283 283 283 283 283 128 128 128 128 186 186 387 387 387 387 387 60 60 277 277
 277 323 323 323 323 24 24 24 24 283 283 283 131 131 131 128 128 128 128 186
 186 186 387 387 387 387 60 60 60 60 60 323 323 323 323 323 24 24 24 283
 283 131 131 131 131 128 128 128 128 186 186 186 387 387 387 60 60 60 60 60
 60 323 323 323 323 323 24 24 24 283 131 131 131 131 131 131 128 128 128 186
 186 201 201 248 248 329 60 60 60 60 124 124 124 323 323 323 228 228 228 228
 131 131 131 131 131 131 128 128 128 201 201 201 248 248 248 169 329 329 60 124
 124 124 124 124 124 228 228 228 228 228 287 287 131 131 131 131 233 3 3 3
 3 201 248 248 248 169 169 329 340 340 340 124 124 124 124 228 228 228 228 228
 287 287 287 287 131 25 25 3 3 3 3 169 169 169 169 169 169 169 340 340
 340 340 340 340 340 228 228 228 228 228 287 287 287 287 25 25 25 25 3 3
 3 169 169 114 169 169 169 134 340 340 340 340 340 340 340 250 228 228 151 287
 287 287 287 287 25 25 25 25 3 3 3 169 169 169 169 169 169 134 340 340
 340 340 340 340 340 250 151 151 151 151 287 287 287 287 345 25 25 25 3 3
 3 169 169 169 169 169 169 134 340 340 340 340 340 340 281 281 151 151 151 151
 230 116 116 345 232 25 25 25 3 3 3 169 169 169 169 169 168 134 134 340
 340 340 340 281 281 281 281 151 230 230 230 275 275 232 232 232 232 259 259 259
 259 259 169 169 168 168 168 168 168 168 340 340 281 281 281 281 281 230 230 230
 275 275 275 232 232 232 232 259 259 259 259 259 58 168 168 168 168 168 168 168
 168 281 281 281 281 281 281 230 230 230 275 275 275 232 232 232 232 259 259 259
 259 259 58 168 168 168 168 168 168 168 168 142 142 142 281 281 281 36 230 275
 275 275 275 232 232 232 232 98 259 259 259 259 259 204 204 204 168 168 168 168
 146 142 142 142 142 142 36 36 36 36 45 45 45 232 232 232 98 98 98 259
 259 259 259 204 204 204 204 204 146 146 146 142 142 142 142 142 36 36 36 36
 45 45 45 45 232 232 98 98 98 263 263 263 263 211 211 211 211 204 146 146
 146 142 142 142 142 36 36 36 36 36 36 66 66 346 346 98 98 263 263 263
 263 263 263 211 211 211 211 78 78 78 78 14 142 142 142 36 36 36 36 36
 66 66 66 66 346 263 263 263 263 263 263 263 263 211 211 211 211 78 78 78
 78 78 14 142 36 36 36 36 36 36 66 66 66 66 136 263 263 263 263 263
 263 263 263 263 211 211 211 78 78 78 78 78 78 111 111 111 36 36 36 36
 66 66 66 66 136 136 263 263 263 263 263 26 26 26 118 118 118 118 78 78
 78 78 123 123 111 111 111 111 111 111 373 373 373 373 136 136 136 263 263 276
 26 26 26 158 158 118 118 118 93 93 317 317 123 123 123 111 111 111 111 111
 65 65 65 65 70 70 70 70 276 276 26 26 158 158 158 118 118 118 93 93
 317 123 123 123 123 389 111 111 111 65 65 65 65 65 70 70 70 70 244 244
 244 158 158 158 158 118 80 80 93 93 317 123 123 123 123 389 389 389 65 65
 65 65 65 70 70 70 70 70 244 244 244 158 158 158 158 80 80 80 80 80
 384 384 384 123 389 389 389 389 389 65 63 65 65 70 70 70 70 70 244 244
 244 244 158 64 64 80 80 80 80 80 384 384 384 384 389 389 389 389 63 63
 63 63 65 70 70 70 70 70 244 244 244 290 64 64 64 199 80 80 80 80
 384 384 384 384 389 389 389 389 63 63 283 283 283 70 70 70 70 70 244 290
 290 290 64 64 199 199 199 199 80 277 384 384 384 384 389 389 389 24 24 63
 283 283 283 283 70 319 319 319 319 319 290 387 387 387 387 199 199 199 277 277
 277 277 323 46 46 46 46 24 24 283 283 283 283 283 319 319 319 319 319 319
 290 387 387 387 387 387 199 199 277 277 277 277 323 323 46 46 46 24 24 283
 237 237 283 283 128 128 128 128 128 186 186 387 387 387 387 387 60 60 277 277
 277 323 323 323 323 46 46 24 24 283 237 237 131 131 131 128 128 128 128 186
 186 186 387 387 387 387 60 60 60 60 277 323 323 323 323 323 24 24 24 283
 237 131 131 131 131 128 128 128 128 186 186 186 387 387 219 219 219 219 60 60
 60 323 323 323 323 323 228 228 24 283 131 131 131 131 131 131 128 128 128 128
 186 186 248 248 219 219 219 219 219 219 124 124 323 323 323 228 228 228 228 228
 161 161 131 131 131 131 128 128 128 128 3 201 248 248 169 219 219 219 219 219
 124 124 124 124 323 228 228 228 228 228 161 161 161 131 131 131 68 68 3 3
 3 169 169 248 169 169 219 219 219 340 340 340 340 340 340 228 228 228 228 228
 287 287 287 287 131 68 68 68 3 3 3 169 169 169 169 169 169 169 340 340
 340 340 340 340 340 228 228 228 228 287 287 287 287 287 287 68 68 68 3 3
 3 169 169 169 169 169 169 169 340 340 340 340 340 340 340 250 151 151 151 287
 287 287 287 287 287 68 68 68 3 3 3 169 169 169 169 169 22 22 22 340
 340 340 340 340 340 151 151 151 151 151 147 147 147 147 147 25 25 68 3 3
 3 169 169 169 169 169 22 22 22 340 340 340 340 340 281 281 151 151 151 151
 230 147 147 147 232 232 25 68 3 3 3 169 169 169 169 169 22 22 22 340
 340 340 281 281 281 281 281 151 151 230 230 275 275 232 232 232 232 259 259 259
 259 259 169 169 121 168 168 168 168 168 340 281 281 281 281 281 281 230 230 230
 275 275 275 232 232 232 232 259 259 259 259 259 259 121 121 168 168 168 168 168
 168 281 281 281 281 281 281 202 202 230 275 275 275 232 232 232 232 259 259 259
 259 259 121 121 121 168 168 168 168 168 146 146 142 281 281 281 281 202 202 202
 275 275 275 232 232 232 232 98 259 259 259 259 121 121 121 168 168 168 146 146
 146 146 142 142 142 142 36 36 202 202 45 45 45 45 232 232 98 98 98 259
 259 259 263 121 204 168 168 146 146 146 146 146 142 142 142 36 36 36 36 36
 36 45 346 346 346 232 98 98 263 263 263 263 263 263 211 211 211 146 146 146
 146 146 142 142 142 36 36 36 36 36 36 66 346 346 346 263 263 263 263 263
 263 263 263 211 211 211 211 78 78 78 78 78 142 142 36 36 36 36 36 36
 66 66 66 346 346 263 263 263 263 263 263 263 263 263 211 211 211 78 78 78
 78 78 142 142 36 36 36 36 36 36 66 66 66 346 263 263 263 263 263 263
 263 263 263 263 211 211 78 78 78 78 78 78 78 142 36 36 36 36 36 36
 66 66 66 66 263 263 263 263 263 263 263 263 158 158 158 118 78 78 78 78
 78 78 123 123 111 111 111 36 36 36 373 373 373 373 136 263 263 263 276 276
 276 158 158 158 158 158 118 118 93 93 317 123 123 123 389 111 111 111 111 369
 65 65 65 65 70 70 18 18 276 276 276 158 158 158 158 158 118 93 93 93
 317 123 123 123 389 389 389 369 369 369 65 65 65 65 70 70 18 18 18 244
 244 158 158 158 158 158 80 80 93 93 317 123 123 123 389 389 389 389 369 369
 65 65 65 70 70 70 70 18 244 244 244 158 158 158 158 80 80 80 80 80
 384 384 384 389 389 389 389 389 369 369 65 65 65 70 70 70 70 70 244 244
 244 158 158 158 75 80 80 80 80 80 384 384 384 389 389 389 389 389 63 63
 63 63 65 70 70 70 70 70 244 244 244 244 158 64 75 199 80 80 80 80
 384 384 384 389 389 389 389 389 63 63 283 283 283 70 70 70 70 319 319 244
 244 290 64 64 199 199 199 199 80 80 384 384 384 389 389 389 389 389 24 63
 283 283 237 237 319 319 319 319 319 319 319 387 387 387 387 199 199 199 277 277
 277 385 385 46 46 46 46 24 24 283 237 237 237 237 319 319 319 319 319 319
 319 387 387 387 387 387 199 199 277 277 277 277 323 323 46 46 46 24 24 283
 237 237 237 237 319 319 319 319 319 319 186 387 387 387 387 387 219 219 277 277
 277 364 323 323 46 46 46 24 24 237 237 237 237 131 131 128 128 128 128 186
 186 186 387 387 387 219 219 219 219 219 277 323 323 323 323 46 46 24 24 237
 237 131 131 131 131 252 128 128 128 128 186 186 387 219 219 219 219 219 219 219
 219 323 323 323 323 46 46 228 24 237 161 161 131 131 131 252 252 128 128 128
 186 169 219 219 219 219 219 219 219 219 219 124 323 323 323 228 228 228 228 161
 161 161 161 131 131 252 252 252 128 128 3 169 169 169 219 219 219 219 219 219
 219 124 124 124 323 228 228 228 228 161 161 161 161 131 131 68 68 68 68 3
 3 169 169 169 169 219 219 219 219 219 340 340 340 340 193 228 228 228 228 161
 161 161 161 287 68 68 68 68 68 3 3 169 169 169 169 169 219 219 219 340
 340 340 340 193 193 193 228 228 228 287 287 287 287 287 68 68 68 68 68 3
 3 169 169 169 169 169 169 22 340 340 340 340 340 193 193 193 151 151 151 151
 147 147 147 147 147 68 68 68 68 3 3 169 169 169 169 169 22 22 22 340
 340 340 340 193 193 193 151 151 151 151 147 147 147 147 147 68 68 68 68 3
 3 169 169 169 169 169 22 22 22 340 340 340 340 193 281 281 151 151 151 151
 147 147 147 147 147 68 68 68 68 259 3 169 169 169 169 22 22 22 22 22
 340 340 281 281 281 281 281 151 151 151 202 147 147 147 232 232 232 259 259 259
 259 259 169 121 121 168 168 168 168 146 146 120 281 281 281 281 281 202 202 202
 202 202 202 202 232 232 232 259 259 259 259 259 121 121 121 168 168 168 168 146
 146 120 120 281 281 281 202 202 202 202 202 202 202 232 232 232 232 259 259 259
 259 259 121 121 121 121 168 168 168 146 146 120 120 281 281 281 202 202 202 202
 202 313 313 313 232 232 232 98 259 259 259 259 121 121 121 168 168 146 146 146
 146 146 146 142 142 142 202 202 202 202 313 313 313 313 313 232 98 98 263 263
 263 263 121 121 121 168 146 146 146 146 146 146 142 142 142 36 36 36 202 202
 313 313 313 346 346 346 263 263 263 263 263 263 263 263 211 211 146 146 146 146
 146 146 146 142 142 36 36 36 36 36 313 313 346 166 346 263 263 263 263 263
 263 263 263 263 211 211 211 78 78 78 78 146 146 142 36 36 36 36 36 36
 66 66 346 346 346 263 263 263 263 263 263 263 263 263 211 211 78 78 78 78
 78 78 78 142 36 36 36 36 36 36 66 66 157 157 346 263 263 263 263 258
 263 263 344 344 158 211 78 78 78 78 78 78 181 181 36 36 36 36 36 36
 66 66 157 157 346 263 263 263 276 276 263 344 344 158 158 158 78 78 78 78
 78 181 181 181 181 111 111 36 36 36 373 373 373 373 136 18 18 18 276 276
 276 158 158 158 158 158 69 69 78 78 181 181 181 181 389 389 111 167 369 369
 369 65 65 65 70 18 18 18 18 276 276 158 158 158 158 158 69 69 93 93
 181 181 181 389 389 389 389 369 369 369 369 65 65 65 70 70 18 18 18 276
 276 158 158 158 158 158 69 69 69 93 181 123 123 389 389 389 389 389 369 369
 369 65 65 70 70 70 18 18 18 244 244 158 158 158 75 75 80 69 80 80
 384 384 384 389 389 389 389 389 369 369 369 65 65 70 70 70 70 18 244 244
 244 158 158 75 75 75 80 80 80 80 384 384 384 389 389 389 389 389 369 63
 63 63 65 70 70 70 70 70 244 244 244 244 158 75 75 75 80 80 80 80
 384 384 384 389 389 389 389 389 389 63 283 283 283 70 70 70 319 319 319 319
 244 290 64 75 75 75 199 199 80 101 384 384 384 389 389 389 389 389 389 63
 237 237 237 237 319 319 319 319 319 319 319 337 337 387 387 101 101 101 101 385
 385 385 385 385 46 46 46 46 24 283 237 237 237 237 319 319 319 319 319 319
 319 337 387 387 387 387 101 101 101 385 385 364 364 364 46 46 46 46 237 237
 237 237 237 237 319 319 319 319 319 196 196 196 387 387 387 219 219 219 219 385
 385 364 364 323 46 46 46 46 237 237 237 237 237 252 252 252 319 319 196 196
 196 196 387 219 219 219 219 219 219 219 385 364 323 323 46 46 46 46 237 237
 237 237 131 252 252 252 252 252 196 196 196 196 219 219 219 219 219 219 219 219
 219 219 323 323 47 46 47 47 47 237 161 161 131 252 252 252 252 252 128 196
 196 196 219 219 219 219 219 219 219 219 219 219 219 323 47 47 47 47 47 161
 161 161 161 252 252 252 252 252 252 196 109 169 219 219 219 219 219 219 219 219
 219 219 193 193 47 47 228 228 228 161 161 161 161 252 252 252 252 68 68 68
 109 169 169 219 219 219 219 219 219 219 219 193 193 193 193 193 228 228 228 161
 161 161 161 161 252 68 68 68 68 68 3 169 169 169 219 219 219 219 219 219
 340 193 193 193 193 193 228 228 228 147 147 147 147 147 147 68 68 68 68 68
 3 169 169 169 169 169 219 219 219 340 340 193 193 193 193 193 193 151 151 147
 147 147 147 147 147 68 68 68 68 68 43 169 169 169 169 169 22 22 22 340
 340 193 193 193 193 193 151 151 151 147 147 147 147 147 147 68 68 68 68 43
 43 43 169 169 169 22 22 22 22 22 340 193 193 193 193 193 151 151 151 147
 147 147 147 147 147 147 68 68 43 43 43 43 254 254 254 22 22 22 22 22
 340 193 193 281 281 281 202 202 202 147 202 147 147 147 147 232 232 43 43 259
 259 259 121 121 121 22 22 168 298 298 120 120 120 281 281 281 202 202 202 202
 202 202 202 147 232 232 232 7 259 259 259 259 121 121 121 168 168 168 298 298
 120 120 120 120 281 281 202 202 202 202 202 202 313 313 232 232 232 259 259 259
 259 259 121 121 121 121 168 168 146 146 120 120 120 120 281 202 202 202 202 202
 202 313 313 313 313 232 95 98 259 259 259 259 121 121 121 168 168 146 146 146
 146 120 120 120 142 202 202 202 202 202 313 313 313 313 313 95 95 98 263 263
 263 263 374 374 374 374 146 146 146 146 146 146 146 142 142 202 202 202 202 202
 313 313 313 313 346 95 263 263 263 263 263 263 374 374 374 374 146 146 146 146
 146 146 146 142 142 36 36 36 202 313 313 313 313 346 346 346 263 263 263 263
 263 263 374 374 374 374 374 78 78 146 146 146 146 142 36 36 36 36 36 36
 157 157 157 346 346 207 263 263 263 263 263 344 344 374 374 374 5 5 78 362
 362 362 362 362 36 36 36 36 36 36 157 157 157 157 207 207 263 263 263 263
 344 344 344 344 374 5 5 5 362 362 362 181 181 181 181 36 36 36 36 157
 157 157 157 157 207 207 263 263 276 276 344 344 344 344 158 5 5 5 362 362
 181 181 181 181 181 181 167 167 167 157 157 157 157 157 207 207 263 18 276 276
 276 344 344 158 158 158 69 69 362 362 181 181 181 181 181 389 167 167 167 167
 369 65 157 157 18 18 18 18 18 276 276 158 158 158 158 158 69 69 69 69
 181 181 181 181 389 389 167 167 167 369 369 178 65 65 70 70 18 18 18 276
 276 158 158 158 158 158 69 69 69 69 181 181 181 389 389 389 389 167 369 369
 369 178 178 70 70 70 18 18 18 244 224 224 158 75 75 75 69 69 69 69
 384 384 384 389 389 389 389 389 369 369 369 178 178 70 70 70 70 18 244 244
 224 224 224 75 75 75 69 69 69 69 384 384 384 389 389 389 389 389 369 369
 63 178 178 70 70 70 70 319 244 244 224 224 224 75 75 75 75 101 101 101
 385 385 384 389 389 389 389 389 389 63 283 178 283 70 70 70 319 319 319 319
 224 224 224 75 75 75 101 101 101 101 385 385 385 389 389 389 389 389 389 389
 237 41 237 237 319 319 319 319 319 319 337 337 337 337 337 101 101 101 101 101
 385 385 385 385 385 46 46 125 125 125 237 237 237 237 319 319 319 319 319 319
 337 337 337 337 325 325 101 101 101 385 364 364 364 385 46 46 46 125 125 125
 237 237 237 237 252 319 319 319 196 196 196 337 337 337 325 219 219 101 385 385
 385 364 385 385 385 46 46 125 125 237 237 237 237 252 252 252 252 196 196 196
 196 196 196 219 219 219 219 219 219 385 385 385 385 385 47 47 47 47 125 125
 237 237 252 252 252 252 252 252 196 196 196 196 219 219 219 219 219 219 219 219
 219 385 385 47 47 47 47 47 47 125 161 161 252 252 252 252 252 252 196 196
 196 196 219 219 219 219 219 219 219 219 219 219 385 47 47 47 47 47 47 47
 161 161 161 252 252 252 252 252 252 109 109 109 219 219 219 219 219 219 219 219
 219 219 193 47 47 47 47 47 47 375 161 161 161 252 252 252 252 252 109 109
 109 109 219 219 219 219 219 219 219 219 219 193 193 193 193 193 47 47 375 375
 147 147 147 147 252 252 68 68 68 109 109 109 169 219 219 219 219 219 219 219
 193 193 193 193 193 193 193 228 147 147 147 147 147 147 147 68 68 68 68 43
 43 43 254 254 254 219 251 251 251 251 193 193 193 193 193 193 193 151 147 147
 147 147 147 147 147 147 68 68 43 43 43 43 254 254 254 254 251 251 251 251
 193 193 193 193 193 193 193 151 147 147 147 147 147 147 147 147 43 43 43 43
 43 43 254 254 254 254 22 22 22 22 193 193 193 193 193 193 164 151 147 147
 147 147 147 147 147 147 43 43 43 43 43 43 254 254 254 254 22 22 22 298
 298 193 193 193 193 164 202 202 202 147 202 147 147 147 147 147 43 43 43 43
 43 43 254 254 254 254 22 298 298 298 298 298 120 120 120 202 202 202 202 202
 202 202 202 147 147 95 7 7 7 43 332 332 121 121 121 168 298 298 298 298
 298 120 120 120 120 202 202 202 202 202 202 202 313 313 313 95 95 95 95 259
 332 332 121 121 121 88 88 298 298 298 120 120 120 120 120 202 202 202 202 202
 202 313 313 313 95 95 95 95 95 348 348 374 374 374 374 88 88 88 146 146
 120 120 120 120 235 202 202 202 202 202 313 313 313 313 95 95 95 95 95 348
 348 374 374 374 374 374 88 88 146 146 146 146 146 235 235 235 202 202 202 202
 313 313 313 313 313 95 95 95 95 263 263 374 374 374 374 374 88 88 146 146
 146 146 146 235 235 96 202 202 202 313 313 313 313 313 346 95 95 263 263 263
 263 344 374 374 374 374 88 88 362 362 362 146 146 235 96 96 96 36 36 313
 157 157 157 157 207 207 207 263 263 263 344 344 344 374 374 374 5 5 362 362
 362 362 362 235 96 96 36 36 36 157 157 157 157 157 207 207 207 263 263 344
 344 344 344 344 374 5 5 5 362 362 362 181 181 181 181 96 36 167 157 157
 157 157 157 157 207 207 207 263 263 344 344 344 344 344 374 5 5 5 362 362
 362 181 181 181 181 167 167 167 167 157 157 157 157 157 207 207 207 18 276 276
 344 344 344 344 158 69 69 69 362 362 181 181 181 181 181 167 167 167 167 167
 178 178 157 157 148 148 18 18 18 276 276 344 158 158 158 69 69 69 69 69
 181 181 181 181 389 389 167 167 167 167 178 178 178 178 148 148 18 18 18 56
 224 224 224 158 158 69 69 69 69 69 212 212 212 389 389 389 167 167 167 167
 178 178 178 178 148 148 18 18 18 224 224 224 224 75 75 69 69 69 69 69
 69 212 389 389 389 389 389 167 167 178 178 178 178 178 70 70 70 56 56 224
 224 224 224 75 75 75 69 69 69 69 385 385 389 389 389 389 389 389 167 178
 178 178 178 178 70 70 56 56 56 224 224 224 224 75 75 75 101 101 101 101
 385 385 385 389 389 389 389 389 389 178 178 178 178 70 70 70 319 319 319 56
 224 224 224 75 75 101 101 101 101 101 385 385 385 385 389 389 389 389 389 389
 41 41 41 41 103 103 103 103 103 337 337 337 337 337 337 101 101 101 101 101
 385 385 385 385 385 385 125 125 125 125 125 41 41 41 103 103 103 103 103 337
 337 337 337 337 325 325 325 101 101 385 385 385 385 385 385 46 125 125 125 125
 125 41 41 252 252 103 103 103 196 196 337 337 337 337 325 325 325 325 385 385
 385 385 385 385 385 385 125 125 125 125 125 41 252 252 252 252 252 103 196 196
 196 337 337 325 325 325 325 219 219 385 385 385 385 385 47 47 47 125 125 125
 125 252 252 252 252 252 252 252 196 196 196 337 219 219 219 219 219 219 219 219
 385 385 385 47 47 47 47 47 125 125 375 252 252 252 252 252 252 252 196 196
 196 109 219 219 219 219 219 219 219 219 219 385 385 47 47 47 47 47 47 375
 375 161 252 252 252 252 252 252 109 109 109 109 109 219 219 219 219 219 219 219
 219 219 47 47 47 47 47 47 47 375 375 161 147 252 252 252 252 252 109 109
 285 285 109 219 219 219 219 219 219 219 219 193 193 193 47 47 47 47 375 375
 147 17 147 16 16 61 61 61 109 109 285 285 109 219 219 219 219 251 251 251
 193 193 193 193 193 330 330 330 375 375 147 17 147 16 16 61 61 61 43 43
 43 109 254 254 254 254 251 251 251 251 251 193 193 193 193 330 330 330 147 147
 147 147 147 147 16 61 61 43 43 43 43 43 254 254 254 254 251 251 251 251
 251 193 193 193 193 330 330 330 147 147 147 147 147 147 147 61 61 43 43 43
 43 43 254 254 254 254 251 251 251 251 298 193 193 193 164 164 164 164 147 147
 147 147 147 147 147 61 61 43 43 43 43 43 254 254 254 254 254 298 298 298
 298 298 193 164 164 164 164 202 202 147 202 147 147 147 147 7 7 43 43 43
 43 43 254 254 254 254 254 298 298 298 298 298 120 120 164 164 202 202 202 202
 202 202 202 147 7 7 7 7 7 332 332 332 254 254 254 254 298 298 298 298
 298 120 120 120 164 164 202 202 202 202 202 202 202 313 95 95 7 7 7 332
 332 332 374 374 374 88 88 88 298 298 120 120 120 120 235 202 202 202 202 202
 202 313 313 313 95 95 95 95 95 348 348 348 374 374 374 88 88 88 88 298
 120 120 120 235 235 235 202 202 202 202 313 313 313 313 95 95 95 95 95 348
 348 374 374 374 374 88 88 88 88 88 146 146 235 235 235 235 202 202 202 202
 313 313 313 313 95 95 95 95 95 348 348 374 374 374 374 374 88 88 88 88
 146 146 235 235 235 96 96 202 202 313 313 313 313 313 95 95 95 95 95 95
 344 344 374 374 374 374 88 88 88 362 362 362 235 235 96 96 96 202 202 313
 157 157 157 157 207 207 207 95 220 220 344 344 374 374 374 374 5 5 362 362
 362 362 362 235 96 96 96 96 157 157 157 157 157 157 207 207 207 220 220 344
 344 344 344 374 374 5 5 5 362 362 362 362 181 181 96 96 96 167 157 157
 157 157 157 157 207 207 207 220 220 220 344 344 344 344 374 5 5 5 362 362
 362 181 181 181 181 200 167 167 167 157 157 157 157 157 148 148 148 148 220 220
 344 344 344 344 117 117 117 69 362 362 181 181 181 181 181 167 167 167 167 167
 178 178 178 148 148 148 148 148 56 56 344 344 344 117 117 117 69 69 69 69
 181 212 181 181 181 167 167 167 167 167 178 178 178 148 148 148 148 148 56 56
 56 224 224 117 117 117 69 69 69 69 212 212 212 389 389 389 167 167 167 167
 178 178 178 178 148 148 148 56 56 56 56 224 224 117 117 117 69 69 69 69
 212 212 212 389 389 389 389 167 167 178 178 178 178 178 148 148 56 56 56 56
 224 224 224 224 117 117 79 79 101 101 212 212 212 389 389 389 389 389 167 178
 178 178 178 178 148 148 56 56 56 56 56 224 224 224 117 101 101 101 101 101
 385 385 385 389 389 389 389 389 73 73 178 178 178 178 103 103 103 103 56 56
 337 337 337 337 337 101 101 101 101 101 385 385 385 385 389 389 389 389 73 73
 41 41 41 41 103 103 103 103 103 103 337 337 337 337 337 101 101 101 101 385
 385 385 385 385 385 385 125 125 125 125 41 41 41 41 103 103 103 103 103 103
 337 337 337 337 325 325 325 101 385 385 385 385 385 385 385 385 125 125 125 125
 125 41 41 41 103 103 103 103 103 103 337 337 337 337 325 325 325 325 385 385
 385 385 385 385 385 385 125 125 125 125 125 41 41 41 103 103 103 103 103 103
 337 337 337 337 325 325 325 267 267 385 385 385 385 385 47 47 47 125 125 125
 125 41 252 252 252 252 252 103 103 196 196 337 337 219 219 219 219 267 267 385
 385 385 385 47 47 47 47 47 125 125 375 375 252 252 252 252 252 252 109 109
 109 109 219 219 219 219 219 219 219 219 219 381 381 47 47 47 47 47 125 375
 375 375 252 252 252 252 252 252 109 109 109 109 109 219 219 219 219 219 219 219
 219 381 47 47 47 47 47 47 375 375 375 375 17 16 252 61 61 109 109 109
 285 285 109 219 219 219 219 219 219 219 219 193 193 47 47 47 47 47 375 375
 375 17 17 16 16 61 61 61 109 109 285 285 109 219 219 219 251 251 251 251
 383 193 193 193 330 330 330 47 375 375 17 17 17 16 16 61 61 61 43 43
 109 109 254 254 254 206 251 251 251 251 251 193 193 193 330 330 330 330 375 375
 147 17 147 16 16 61 61 61 43 43 43 43 254 254 254 254 251 251 251 251
 251 383 193 193 330 330 330 330 375 147 147 147 147 147 16 61 61 43 43 43
 43 43 254 254 254 254 251 251 251 251 251 383 164 164 164 164 164 164 147 147
 147 147 147 147 147 61 61 43 43 43 43 43 254 254 254 254 251 251 251 251
 255 255 164 164 164 164 164 164 202 147 202 147 147 147 217 7 7 43 43 43
 43 43 254 254 254 254 253 253 298 298 255 255 255 164 164 164 164 202 202 202
 202 202 202 202 7 7 7 7 7 332 332 332 254 254 254 253 253 253 298 298
 255 255 255 255 164 164 202 202 202 202 202 202 202 202 7 7 7 7 7 332
 332 332 332 374 88 88 88 88 88 298 255 255 255 235 235 235 202 202 202 202
 202 202 313 313 95 95 95 95 95 348 348 332 374 374 374 88 88 88 88 88
 255 255 235 235 235 235 215 215 202 202 313 313 313 313 95 95 95 95 95 348
 348 6 374 374 374 88 88 88 88 88 85 85 235 235 235 235 215 215 215 202
 313 313 313 313 95 95 95 95 95 348 348 6 374 374 374 374 88 88 88 88
 88 85 235 235 235 96 96 215 215 202 313 313 313 313 95 95 95 95 95 95
 220 374 374 374 374 374 88 88 88 88 362 235 235 235 96 96 96 215 215 215
 157 157 157 157 95 95 95 220 220 220 220 344 374 374 374 374 5 5 362 362
 362 362 235 235 96 96 96 215 215 157 157 157 157 157 207 207 220 220 220 220
 220 344 344 374 374 374 5 5 362 362 362 362 181 200 200 200 96 167 157 157
 10 10 10 148 148 148 148 220 220 220 220 344 344 341 117 117 117 117 362 362
 362 181 181 181 200 200 200 167 167 157 10 10 10 148 148 148 148 148 220 220
 220 344 344 117 117 117 117 117 117 362 181 181 181 181 200 200 167 167 167 167
 178 178 178 148 148 148 148 148 56 56 56 56 117 117 117 117 117 117 117 117
 212 212 212 212 200 132 167 167 167 167 178 178 178 148 148 148 148 148 56 56
 56 56 117 117 117 117 117 117 117 156 212 212 212 295 295 132 167 167 167 178
 178 178 178 148 148 148 148 56 56 56 56 56 117 117 117 117 117 117 156 156
 212 212 212 295 295 295 167 167 73 73 178 178 178 148 148 148 148 56 56 56
 56 56 56 117 117 117 79 79 79 156 156 156 295 295 295 295 389 73 73 73
 73 178 178 148 148 148 56 56 56 56 56 56 56 117 117 117 79 79 101 101
 385 385 295 295 295 295 389 73 73 73 73 41 41 103 103 103 103 103 56 56
 56 337 337 337 117 101 101 101 101 101 385 385 385 385 295 295 389 73 73 73
 41 41 41 41 103 103 103 103 103 103 337 337 337 337 337 101 101 101 101 385
 385 385 385 385 385 385 125 125 125 125 41 41 41 41 103 103 103 103 103 103
 337 337 337 337 337 325 325 101 385 385 385 385 385 385 385 385 125 125 125 125
 41 41 41 41 103 103 103 103 103 103 337 337 337 337 325 325 325 267 267 385
 385 385 385 385 385 385 125 125 125 125 125 41 41 103 103 103 103 103 103 103
 337 337 337 337 325 325 267 267 267 267 385 385 385 385 47 47 47 125 125 125
 125 41 81 103 103 103 103 103 103 103 31 31 31 31 219 267 267 267 267 267
 381 381 381 47 47 47 47 47 125 125 375 81 81 252 252 252 252 103 109 109
 31 31 31 219 219 219 267 267 267 267 381 381 381 47 47 47 47 47 47 375
 375 375 81 252 252 252 252 109 109 109 109 336 31 219 219 219 219 267 267 267
 381 381 381 47 47 47 47 47 375 375 375 375 375 16 61 61 61 109 109 109
 109 336 109 219 219 219 219 219 219 219 383 383 383 47 171 171 171 375 375 375
 375 375 17 16 61 61 61 61 109 109 109 109 109 206 206 206 206 251 251 383
 383 383 383 324 324 324 324 324 375 375 375 17 17 16 16 61 61 61 109 109
 109 109 254 254 206 206 206 251 251 251 383 383 383 324 324 324 324 324 375 375
 38 38 38 16 61 61 61 61 43 43 43 43 254 254 254 206 206 251 251 251
 383 383 383 324 324 324 324 324 375 147 38 38 38 38 61 61 61 43 43 43
 43 43 254 254 254 254 206 251 251 251 383 383 383 164 164 164 164 324 147 147
 38 38 38 147 217 217 217 43 43 43 43 43 254 254 254 254 206 251 253 253