# vtk DataFile Version 2.0
Data set from IO Version 6.4.197.9a0dee2
ASCII

DATASET RECTILINEAR_GRID
DIMENSIONS 31 31 31
X_COORDINATES 31 float
-4.700000 4.700000 14.099999 23.500000 32.899998 42.299999 51.699997 61.099995 70.500000 79.900002 89.300003 98.699997 108.099998 117.500000 126.899994 136.300003 145.699997 155.099991 164.500000 173.899994 183.300003 
192.699997 202.099991 211.500000 220.899994 230.299988 239.699997 249.099991 258.499969 267.899963 277.299988 
Y_COORDINATES 31 float
-4.700000 4.700000 14.099999 23.500000 32.899998 42.299999 51.699997 61.099995 70.500000 79.900002 89.300003 98.699997 108.099998 117.500000 126.899994 136.300003 145.699997 155.099991 164.500000 173.899994 183.300003 
192.699997 202.099991 211.500000 220.899994 230.299988 239.699997 249.099991 258.499969 267.899963 277.299988 
Z_COORDINATES 31 float
-4.700000 4.700000 14.099999 23.500000 32.899998 42.299999 51.699997 61.099995 70.500000 79.900002 89.300003 98.699997 108.099998 117.500000 126.899994 136.300003 145.699997 155.099991 164.500000 173.899994 183.300003 
192.699997 202.099991 211.500000 220.899994 230.299988 239.699997 249.099991 258.499969 267.899963 277.299988 
CELL_DATA 27000
SCALARS FeatureIds int 1
LOOKUP_TABLE default
 371 371 371 182 182 84 84 84 84 343 343 85 85 421 262 262 262 262 210 210
 210 210 210 146 146 302 302 302 302 302 371 371 371 182 182 84 84 84 84 343
 343 85 85 85 262 262 262 262 210 210 210 210 146 146 146 302 302 302 302 302
 371 371 371 182 182 84 84 84 84 343 343 85 85 85 262 262 262 262 36 36
 36 36 36 146 146 302 302 302 302 302 371 371 371 182 182 182 84 84 401 401
 401 85 85 85 262 262 262 262 36 36 36 36 36 281 281 135 302 302 302 302
 406 406 406 182 182 182 84 401 401 401 401 83 83 167 167 60 262 36 36 36
 36 36 36 281 135 135 135 302 302 181 406 406 406 255 217 217 217 401 401 401
 401 83 83 167 167 60 205 205 36 36 36 36 36 36 135 135 135 181 181 181
 406 406 255 255 217 217 217 217 401 83 83 83 83 60 60 60 205 205 205 36
 36 36 36 36 135 135 135 181 181 181 400 400 255 255 217 217 217 217 83 83
 83 83 83 60 60 60 205 205 205 36 36 36 36 36 45 45 181 181 181 181
 400 400 400 217 217 217 217 217 217 83 83 115 115 60 60 60 205 205 205 19
 19 266 266 266 45 45 45 18 18 181 400 400 400 217 217 217 217 217 217 115
 115 115 115 170 170 170 170 205 19 19 19 266 266 53 53 53 18 18 18 400
 400 400 400 217 217 217 217 217 217 217 115 115 115 170 170 170 317 317 19 19
 19 266 266 53 53 53 53 44 44 400 2 2 2 217 217 217 217 217 217 217
 115 115 294 294 294 317 317 317 230 230 230 230 266 53 53 53 53 44 44 2
 2 2 2 2 217 217 217 217 130 130 106 106 294 294 294 294 422 422 422 230
 230 117 117 53 53 53 53 53 44 2 2 2 2 2 2 217 217 130 130 130
 130 106 294 294 294 294 422 422 422 422 117 117 117 117 63 53 53 53 2 2
 2 2 2 2 144 144 144 130 130 130 130 130 294 294 294 294 422 422 417 417
 117 117 117 117 117 63 63 63 2 2 215 215 215 215 144 144 144 222 130 130
 130 130 294 294 294 294 422 417 417 417 117 117 117 117 117 63 63 215 215 215
 215 215 215 215 144 144 144 222 130 130 130 130 130 352 352 352 352 417 417 417
 417 117 117 117 402 63 14 14 14 215 215 215 215 215 215 144 144 130 130 130
 130 130 131 352 352 352 352 73 73 73 73 402 402 402 402 26 26 14 14 215
 215 215 215 215 215 105 105 105 347 347 347 347 43 43 352 352 352 352 73 73
 73 402 402 402 402 26 26 26 215 215 298 215 215 215 105 105 105 347 347 169
 347 347 43 43 43 352 352 381 73 73 73 402 402 402 402 26 26 26 215 215
 298 298 215 215 105 105 105 105 169 347 347 347 43 43 137 137 137 381 381 211
 211 211 211 402 402 26 26 26 298 298 298 61 61 215 399 399 399 399 169 347
 347 407 407 43 137 137 277 381 277 408 408 211 211 211 402 26 392 392 392 298
 61 61 61 61 399 399 399 399 64 64 64 407 407 407 137 137 277 277 277 277
 408 211 211 211 339 339 392 392 392 298 61 61 61 61 399 399 140 140 64 64
 64 407 407 407 407 132 277 277 277 277 65 65 65 65 339 339 339 339 339 339
 61 61 61 61 140 140 140 140 64 64 64 407 407 407 132 132 132 132 132 65
 65 65 65 65 339 339 339 339 339 339 367 367 61 61 140 140 140 64 64 64
 64 64 407 407 132 132 132 132 132 65 65 65 65 65 339 339 339 339 367 367
 367 367 367 367 84 84 84 84 64 64 64 64 421 421 132 132 132 132 132 65
 65 65 65 336 336 339 339 66 367 367 367 367 367 92 84 84 84 84 84 343
 343 421 421 421 132 132 132 132 132 210 210 65 336 336 336 336 66 66 367 367
 367 367 367 92 84 84 84 84 84 343 343 421 421 421 421 132 132 132 210 210
 210 210 336 336 336 336 66 66 367 367 367 371 371 84 84 84 84 84 84 343
 343 421 421 421 421 132 132 132 210 210 210 210 210 336 336 302 302 302 302 367
 371 371 371 92 92 84 84 84 84 84 343 85 85 85 262 262 262 262 210 210
 210 210 146 146 3 3 302 302 302 302 371 371 371 371 92 84 84 84 84 84
 85 85 85 85 262 262 262 262 210 210 210 210 146 146 3 3 302 302 302 302
 371 371 371 371 182 84 84 84 84 84 85 85 85 85 262 262 262 262 36 36
 36 36 146 146 3 3 302 302 302 302 371 371 371 371 182 182 84 84 84 401
 83 85 85 85 262 262 262 262 36 36 36 36 36 135 135 135 302 302 302 302
 406 406 371 255 182 217 84 401 401 401 83 83 83 60 60 262 262 36 36 36
 36 36 36 135 135 135 135 135 302 268 268 406 255 255 255 217 217 83 83 83
 83 83 83 60 60 60 60 205 36 36 36 36 36 135 135 135 135 135 181 268
 268 406 255 255 255 217 217 217 83 83 83 83 83 60 60 60 60 186 36 36
 36 36 36 36 135 135 135 181 181 268 400 400 255 255 255 217 217 217 83 83
 83 83 83 60 60 60 60 186 186 36 36 36 36 36 45 45 45 181 181 268
 400 400 400 255 217 217 217 217 217 83 115 115 115 60 60 60 60 186 186 19
 266 266 266 266 45 45 45 18 18 400 400 400 400 217 217 217 217 217 217 115
 115 115 115 115 317 317 317 317 19 19 266 266 266 53 53 45 18 18 18 400
 400 400 400 217 217 217 217 217 217 115 115 115 115 115 317 317 317 317 230 230
 266 266 266 53 53 53 53 18 18 400 2 400 2 217 217 217 217 217 217 115
 115 115 294 294 317 317 317 317 230 230 230 230 266 53 53 53 53 53 44 2
 2 2 2 2 217 217 217 217 130 130 106 106 294 294 294 294 422 422 422 230
 230 117 117 53 53 53 53 53 2 2 2 2 2 2 2 217 217 130 130 130
 130 106 294 294 294 294 422 422 422 422 117 117 117 117 53 53 53 53 2 2
 2 2 2 2 2 144 144 222 130 130 130 106 294 294 294 294 422 422 422 117
 117 117 117 117 117 63 63 53 2 2 215 215 215 215 144 144 144 222 130 130
 130 130 294 294 294 294 422 422 417 417 117 117 117 117 117 63 63 14 14 215
 215 215 215 215 144 144 144 222 130 130 130 130 131 294 352 352 352 73 73 73
 73 117 117 117 117 26 26 14 14 14 215 215 215 215 215 144 144 130 130 130
 130 131 131 131 352 352 352 73 73 73 73 117 402 402 402 26 26 14 14 14
 215 215 215 215 105 105 105 347 347 347 347 131 43 43 352 352 352 73 73 73
 73 402 402 402 26 26 26 26 14 215 298 298 215 215 105 105 105 347 347 169
 347 347 43 43 43 352 352 39 73 73 73 332 332 332 26 26 26 26 26 298
 298 298 215 215 105 105 105 347 347 347 347 347 43 43 137 137 137 39 39 39
 211 211 211 332 332 26 26 26 26 298 298 264 264 264 105 105 105 105 347 347
 347 407 43 43 137 137 137 39 39 39 211 211 211 332 332 26 392 392 392 298
 264 264 264 264 399 399 399 140 64 347 407 407 407 407 137 137 137 39 39 39
 211 211 211 332 332 392 392 392 392 298 264 264 264 264 399 140 140 140 64 64
 64 407 407 407 407 132 132 132 39 39 65 65 65 65 339 339 392 392 392 392
 61 61 61 61 140 140 140 140 64 64 64 407 407 407 407 132 132 132 132 132
 65 65 65 65 339 339 339 339 392 392 367 367 61 61 140 140 140 140 64 64
 64 64 407 407 132 132 132 132 132 132 65 65 65 336 336 339 339 339 66 367
 367 367 367 92 92 84 84 84 64 64 64 64 421 132 132 132 132 132 132 132
 65 65 336 336 336 339 66 66 66 367 367 367 92 92 92 84 84 84 84 64
 64 421 421 132 132 132 132 132 132 210 210 210 336 336 336 336 66 66 66 367
 367 367 92 92 92 84 84 84 84 84 343 421 421 421 132 132 132 132 132 210
 210 210 336 336 336 336 66 66 66 367 371 371 92 92 92 84 84 84 84 84
 343 421 421 421 132 132 132 132 210 210 210 210 210 336 336 336 302 302 302 367
 371 371 371 92 92 84 84 84 138 138 138 85 85 85 262 262 262 262 210 210
 210 210 210 3 3 3 302 302 302 302 371 371 371 92 92 84 84 84 138 138
 138 85 85 85 262 262 262 262 210 210 210 210 146 146 3 3 302 302 302 302
 371 371 371 92 92 84 84 138 138 138 138 85 85 85 262 262 262 262 36 36
 36 36 146 3 3 3 302 302 302 302 371 371 371 92 92 84 84 138 138 138
 83 85 85 85 262 262 262 262 36 36 36 36 36 3 135 135 302 302 302 302
 268 371 90 90 90 90 84 138 83 83 83 83 83 60 60 60 262 36 36 36
 36 36 36 135 135 135 135 302 302 268 268 90 90 90 90 90 217 217 83 83
 83 83 83 60 60 60 60 186 36 36 36 36 36 135 135 135 135 135 268 268
 268 90 90 90 90 217 217 217 83 83 83 83 83 60 60 60 60 186 186 36
 36 36 36 36 135 135 135 181 268 268 268 400 90 90 90 217 217 217 83 83
 83 83 83 60 60 60 186 186 186 186 36 36 36 36 45 45 45 181 268 268
 400 400 90 90 217 217 217 217 217 83 83 115 115 60 60 60 60 186 186 186
 266 266 266 266 45 45 45 18 18 400 400 400 400 217 217 217 217 217 217 115
 115 115 115 115 317 317 317 317 186 186 266 266 266 53 53 45 18 18 18 400
 400 400 400 217 217 217 217 217 217 217 115 115 115 317 317 317 317 317 230 230
 266 266 266 53 53 53 53 18 18 400 2 400 2 217 217 217 217 217 217 217
 115 115 294 317 317 317 317 317 230 230 230 230 59 59 53 53 53 53 18 2
 2 2 2 2 217 217 217 217 130 130 106 106 294 294 294 317 422 422 422 230
 230 117 117 53 53 53 53 53 53 2 2 2 2 2 2 217 217 130 130 130
 130 106 294 294 294 294 422 422 422 422 117 117 117 117 53 53 53 53 2 2
 2 2 2 2 2 144 222 222 130 130 130 294 294 294 294 294 422 422 422 117
 117 117 117 117 117 53 53 53 2 2 2 2 2 2 144 144 222 222 130 130
 130 130 294 294 294 294 422 422 417 417 117 117 117 117 117 26 26 14 14 14
 259 259 215 215 144 144 144 130 130 130 130 131 131 131 352 352 352 352 73 73
 73 117 117 117 272 26 26 14 14 14 259 259 259 215 215 144 144 130 130 47
 131 131 131 131 352 352 352 73 73 73 73 117 272 103 272 26 26 14 14 14
 259 259 215 215 105 105 105 347 347 347 131 131 131 43 352 352 352 352 73 73
 73 73 332 332 26 26 26 26 14 14 298 298 215 215 105 105 105 347 347 169
 347 131 43 43 43 352 39 39 39 39 73 332 332 332 332 26 26 26 26 298
 298 264 264 264 105 105 105 105 347 347 347 131 43 43 137 137 39 39 39 39
 211 211 332 332 332 26 26 26 26 298 264 264 264 264 264 105 105 89 347 347
 347 407 407 43 137 137 39 39 39 39 211 211 211 332 332 26 392 392 97 97
 264 264 264 264 264 297 140 140 140 64 407 407 407 407 407 137 39 39 39 39
 211 211 211 332 332 392 392 392 392 97 264 264 264 264 264 140 140 140 140 64
 64 407 407 407 407 132 39 39 39 39 65 65 65 332 332 339 392 392 392 97
 264 264 264 264 140 140 140 140 140 64 64 407 407 407 407 132 132 132 132 132
 65 65 309 65 309 339 392 392 392 392 367 92 92 92 140 140 140 140 64 64
 64 407 407 407 132 132 132 132 132 132 65 65 309 336 336 339 66 66 66 367
 367 92 92 92 92 84 84 84 64 64 64 64 407 132 132 132 132 132 132 132
 210 65 336 336 336 336 66 66 66 367 92 92 92 92 92 84 84 84 84 64
 64 64 421 132 132 132 132 132 132 132 210 210 336 336 336 336 66 66 66 367
 92 92 92 92 92 84 84 84 84 84 84 421 421 132 132 132 132 132 132 210
 210 210 336 336 336 336 66 66 66 367 371 92 92 92 92 84 84 84 84 84
 84 84 421 132 132 132 132 132 210 210 210 210 210 336 336 302 302 302 302 302
 92 92 92 92 92 92 84 138 138 138 138 85 85 85 262 262 262 262 210 210
 210 210 210 3 3 3 273 273 273 273 371 371 92 92 92 92 84 138 138 138
 138 85 85 85 262 262 262 262 262 210 210 210 146 3 3 3 273 273 273 273
 371 371 92 92 92 92 84 138 138 138 138 85 85 85 262 262 262 262 36 36
 36 36 232 3 3 3 273 273 273 273 371 371 92 92 303 92 84 138 138 138
 138 85 85 85 262 254 262 254 36 36 36 36 36 232 3 135 273 273 273 273
 268 371 90 303 303 303 303 138 138 83 83 83 83 145 60 60 254 186 36 36
 36 36 36 135 135 135 135 273 273 268 268 90 90 90 90 90 217 242 118 83
 83 83 83 60 60 60 60 186 186 36 36 36 36 135 135 135 135 268 268 268
 268 90 90 90 90 90 217 242 118 118 83 83 83 60 60 60 186 186 186 186
 36 36 36 36 135 135 135 268 268 268 268 90 90 90 90 217 217 217 118 118
 83 83 83 60 60 60 186 186 186 186 186 36 36 36 45 45 45 268 268 268
 400 90 90 90 90 217 217 217 118 118 83 115 115 225 225 60 186 186 186 186
 186 266 266 266 45 45 45 18 268 268 400 400 90 217 217 217 217 217 217 118
 115 115 115 317 317 317 317 415 415 415 415 266 266 59 53 53 18 18 18 196
 400 400 400 217 217 217 217 217 217 366 115 115 115 317 317 317 317 415 415 415
 266 266 59 59 53 53 53 18 196 196 2 2 204 217 217 217 217 217 217 366
 115 115 294 317 317 317 317 415 415 230 230 230 59 59 59 53 53 53 53 196
 2 2 204 204 204 217 217 217 202 202 202 106 294 294 294 317 422 422 415 230
 230 117 59 59 59 53 53 53 53 2 2 2 204 204 204 204 202 202 202 202
 202 202 294 294 294 294 422 422 422 230 117 117 117 117 53 53 53 53 2 2
 2 2 204 204 204 204 202 202 202 202 202 202 294 294 294 294 422 422 286 286
 117 117 117 117 117 53 53 53 2 2 2 204 204 204 204 144 202 202 202 202
 202 202 131 294 294 294 286 286 286 286 286 117 117 117 272 21 26 14 14 2
 259 259 259 204 204 144 144 202 202 47 131 131 131 131 352 352 286 286 286 286
 286 286 272 103 272 21 26 14 14 199 259 259 259 215 215 144 126 126 47 47
 131 131 131 131 352 352 286 286 286 286 286 286 272 103 272 26 26 26 14 199
 259 259 259 259 105 105 126 126 47 47 131 131 131 131 352 352 286 286 286 286
 286 286 332 332 332 26 26 26 199 199 298 298 259 259 105 105 105 89 221 221
 131 131 131 43 171 171 39 39 39 286 286 286 332 332 332 26 26 26 199 199
 97 264 264 264 297 297 297 89 89 221 221 131 171 171 171 171 39 39 39 39
 39 332 332 332 332 26 26 26 97 97 97 264 264 264 264 297 297 89 89 89
 221 407 171 171 171 171 39 39 39 39 39 211 332 332 332 26 26 392 97 97
 264 264 264 264 264 297 297 89 89 89 148 407 407 407 171 171 39 39 39 39
 39 211 332 332 332 332 392 392 97 97 264 264 264 264 418 418 140 140 140 148
 148 407 407 407 407 132 39 39 39 39 309 309 309 309 309 309 392 392 392 97
 264 264 264 264 418 418 140 140 140 148 148 148 407 407 407 132 132 132 132 132
 309 309 309 309 309 309 392 392 392 392 92 92 92 92 418 418 140 140 64 64
 148 148 148 407 132 132 132 132 132 132 309 309 309 98 98 98 66 66 66 367
 92 92 92 92 92 92 140 84 64 64 148 148 148 132 132 132 132 132 132 132
 309 309 309 98 98 98 66 66 66 367 92 92 92 92 92 92 84 84 84 64
 148 148 148 132 132 132 132 132 132 132 210 309 309 336 336 336 66 66 66 367
 92 92 92 92 92 92 84 84 84 84 148 148 148 132 132 132 132 132 132 210
 210 210 336 336 336 336 66 66 66 367 92 92 92 92 92 92 84 84 84 138
 84 84 421 132 132 132 132 132 132 210 210 210 210 336 232 273 273 273 302 302
 92 92 92 92 92 92 176 176 138 138 138 138 85 85 262 262 262 262 232 232
 232 232 232 232 232 273 273 273 273 273 92 92 92 92 92 92 249 138 138 138
 138 138 85 85 254 254 254 254 254 232 232 232 232 232 232 273 273 273 273 273
 134 92 92 92 92 249 249 138 138 138 138 138 145 145 254 254 254 254 254 232
 232 232 232 232 232 273 273 273 273 273 134 134 92 303 303 303 249 138 138 138
 138 145 145 145 254 254 254 254 254 36 36 232 232 232 232 273 273 273 273 273
 207 207 303 303 303 303 303 242 242 118 118 118 145 145 254 254 254 254 254 36
 36 36 232 232 355 355 355 273 273 207 207 207 90 90 90 90 242 242 242 118
 118 118 118 145 60 60 254 186 186 36 36 36 128 355 355 355 355 355 207 207
 207 90 90 90 90 90 242 242 242 118 118 118 118 60 60 60 186 186 186 186
 36 36 128 355 355 355 355 355 268 268 207 90 90 90 90 90 242 242 118 118
 118 118 118 225 225 225 415 186 186 186 186 377 377 128 355 355 355 355 268 268
 196 90 90 90 90 217 242 242 118 118 118 118 225 225 225 225 415 415 415 415
 415 377 377 128 128 355 45 196 196 196 196 90 90 90 217 217 217 217 366 366
 366 366 225 225 225 225 415 415 415 415 415 415 128 59 53 53 53 196 196 196
 196 195 195 217 217 217 217 217 366 366 366 366 225 225 225 225 415 415 415 415
 415 415 59 59 59 53 53 196 196 196 204 204 204 204 204 217 217 217 366 366
 366 202 225 225 225 225 415 415 415 415 230 59 59 59 59 53 53 53 196 196
 204 204 204 204 204 204 217 202 202 202 202 202 216 216 225 225 415 415 415 415
 230 59 59 59 59 53 53 53 204 204 204 204 204 204 204 204 202 202 202 202
 202 202 294 294 294 294 415 422 415 286 286 117 59 59 59 53 53 53 204 204
 204 204 204 204 204 204 202 202 202 202 202 202 202 294 294 294 286 286 286 286
 286 117 117 198 198 53 53 204 204 204 204 204 204 204 204 204 202 202 202 202
 202 202 202 202 294 286 286 286 286 286 286 286 286 272 21 21 21 199 199 204
 259 259 259 204 204 126 126 126 202 202 202 131 131 131 131 286 286 286 286 286
 286 286 286 272 21 21 21 199 199 199 259 259 259 204 204 126 126 126 126 47
 131 131 131 131 131 286 286 286 286 286 286 286 286 103 21 21 21 199 199 199
 199 259 259 259 259 126 126 126 221 221 131 131 131 131 171 286 286 286 286 286
 286 286 332 332 332 21 26 199 199 199 199 199 259 259 89 89 89 89 221 221
 221 131 131 171 171 171 171 286 286 286 286 286 332 332 332 26 26 26 199 199
 199 264 264 264 297 297 89 89 89 221 221 131 171 171 171 171 171 39 39 39
 39 332 332 332 332 332 26 26 199 97 264 264 264 264 297 297 297 89 89 89
 221 148 171 171 171 171 171 39 39 39 39 332 332 332 332 332 26 97 97 97
 264 264 264 264 297 297 297 89 89 89 148 148 148 171 171 171 171 39 39 39
 39 309 332 332 332 332 392 97 97 97 264 264 264 264 418 418 418 89 89 148
 148 148 148 148 171 171 39 39 39 39 309 309 309 309 309 309 392 392 97 97
 264 264 264 418 418 418 418 418 148 148 148 148 148 148 132 132 132 132 132 309
 309 309 309 309 309 309 334 334 334 97 92 92 92 418 418 418 418 418 148 148
 148 148 148 148 132 132 132 132 132 309 309 309 309 309 98 98 334 334 334 334
 92 92 92 92 92 418 418 418 148 148 148 148 148 148 132 132 132 132 132 309
 309 309 309 98 98 98 98 66 66 367 92 92 92 92 92 92 176 176 176 148
 148 148 148 148 132 132 132 132 132 132 309 309 309 98 98 98 267 267 267 267
 92 92 92 92 92 92 176 176 176 176 148 148 148 132 132 132 132 132 132 391
 232 232 232 232 232 267 267 267 267 267 92 92 92 92 92 92 176 176 176 138
 138 148 148 132 132 132 132 132 132 391 232 232 232 232 232 267 267 267 267 267
 92 92 92 92 92 92 176 176 176 310 310 310 310 145 254 254 254 254 232 232
 232 232 232 232 232 267 267 267 273 273 92 92 92 92 92 249 249 249 310 310
 310 310 145 145 254 254 254 254 254 232 232 232 232 232 232 273 273 273 273 273
 134 134 92 92 249 249 249 249 310 310 310 310 145 145 145 254 254 254 254 232
 232 232 232 232 232 273 273 273 273 273 134 134 134 92 303 249 249 249 310 310
 310 145 145 145 145 254 254 254 254 232 232 232 232 232 232 232 273 273 273 273
 207 207 207 303 303 303 249 249 310 310 118 145 145 145 145 254 254 254 254 254
 232 232 232 232 355 355 355 273 273 207 207 207 207 90 90 242 242 242 242 118
 118 118 145 145 158 158 158 254 254 254 128 128 128 355 355 355 355 355 207 207
 207 207 90 90 90 242 242 242 242 118 118 118 118 225 225 158 415 415 415 415
 128 128 128 128 355 355 355 355 207 207 207 207 90 90 90 242 242 242 118 118
 118 118 118 225 225 225 415 415 415 415 377 377 377 128 355 355 355 355 207 207
 196 195 90 90 90 242 242 242 118 118 118 118 118 225 225 225 415 415 415 415
 128 377 377 128 128 355 355 196 196 196 196 195 195 195 217 217 242 242 366 366
 366 118 225 225 225 225 415 415 415 415 415 128 128 119 119 119 196 196 196 196
 196 195 195 195 217 217 217 242 366 366 366 366 225 225 225 225 415 415 415 415
 415 87 128 119 119 119 196 196 196 196 204 195 204 204 204 204 217 217 366 366
 366 366 216 225 225 225 415 415 415 415 415 87 87 59 59 53 53 196 196 196
 204 204 204 204 204 204 177 202 202 202 202 216 216 216 216 216 415 415 415 415
 87 87 87 59 59 386 192 192 192 192 204 307 204 204 204 204 177 202 202 202
 202 202 216 216 216 216 415 415 415 286 286 286 198 198 386 386 386 192 192 192
 204 204 204 204 204 204 177 202 202 202 202 202 216 216 216 216 286 286 286 286
 286 286 198 198 198 21 386 192 192 192 204 204 204 204 204 204 177 202 202 202
 202 202 202 216 216 216 286 286 286 286 286 286 198 198 198 21 21 386 192 192
 199 204 204 204 204 126 126 126 202 202 202 202 202 202 216 286 286 286 286 286
 286 286 198 198 21 21 21 199 199 199 199 199 259 204 126 126 126 126 126 202
 202 131 131 131 228 228 228 286 286 286 286 286 286 198 21 21 21 199 199 199
 199 199 199 199 126 126 126 126 221 221 221 131 131 131 228 228 228 228 286 286
 286 286 286 332 21 21 21 199 199 199 199 199 241 241 89 89 89 89 221 221
 221 221 221 171 171 171 171 286 286 286 286 286 332 332 332 21 21 199 199 199
 199 241 241 241 89 89 89 89 89 221 221 221 171 171 171 171 171 171 39 286
 286 286 332 332 332 332 199 199 199 199 241 241 241 241 89 89 89 89 89 89
 221 221 171 171 171 171 171 39 39 39 39 332 332 332 332 332 199 199 328 328
 241 241 241 241 89 89 89 89 89 89 148 148 148 171 171 171 171 39 39 39
 309 309 309 332 332 332 380 328 328 328 241 241 241 418 418 418 418 89 89 148
 148 148 148 148 171 171 171 39 39 309 309 309 309 309 309 309 334 334 328 328
 241 241 418 418 418 418 418 418 148 148 148 148 148 148 148 132 132 132 39 309
 309 309 309 309 309 309 334 334 334 328 92 92 418 418 418 418 418 418 148 148
 148 148 148 148 148 132 132 132 132 309 309 309 309 309 309 309 334 334 334 334
 92 92 92 92 418 418 418 418 148 148 148 148 148 148 148 132 132 132 132 309
 309 309 309 309 98 309 334 334 334 334 92 92 92 92 92 92 176 176 176 191
 148 148 148 148 148 132 132 391 391 391 309 309 309 309 309 309 267 267 267 267
 92 92 92 92 92 92 176 176 176 176 148 148 148 148 132 132 132 391 391 391
 391 232 232 232 232 267 267 267 267 267 92 92 92 92 92 92 176 176 176 176
 176 148 148 148 132 132 132 391 391 391 232 232 232 232 232 267 267 267 267 267
 92 92 92 92 92 249 249 176 310 310 310 310 310 23 254 254 254 232 232 232
 232 232 232 232 232 267 267 267 267 273 134 134 92 92 249 249 249 249 310 310
 310 310 310 145 254 254 254 254 232 232 232 232 232 232 232 267 273 273 273 273
 134 134 134 92 249 249 249 249 310 310 310 310 145 145 145 254 254 254 254 232
 232 232 232 232 232 232 273 273 273 273 134 134 134 92 249 249 249 249 310 310
 74 74 145 145 145 254 254 254 254 232 232 232 232 232 232 232 273 273 273 273
 207 134 134 134 249 249 249 249 74 74 74 74 145 145 145 158 254 254 254 232
 232 232 232 232 355 355 355 273 207 207 207 207 207 207 90 242 242 242 242 118
 118 74 145 145 158 158 158 254 254 128 128 128 128 128 355 355 355 355 207 207
 207 207 207 90 90 242 242 242 242 118 118 118 118 158 158 158 158 240 240 128
 128 128 128 128 355 355 355 355 207 207 207 207 207 90 90 242 242 242 242 118
 118 118 118 225 225 225 415 240 415 415 128 377 128 128 128 355 355 207 207 207
 196 195 195 195 90 242 242 242 118 118 118 118 118 225 225 225 415 415 415 415
 128 377 128 128 119 119 142 196 196 196 196 195 195 195 195 242 242 351 351 351
 351 351 351 225 225 225 415 415 415 415 128 128 119 119 119 119 142 196 196 196
 195 195 195 195 195 217 351 351 351 351 351 351 351 225 225 225 415 415 415 415
 87 87 87 119 119 119 142 196 196 196 195 195 195 204 204 204 351 351 351 351
 351 351 216 216 225 225 415 415 415 415 87 87 87 119 119 119 192 192 192 192
 192 204 204 204 204 204 177 177 202 202 351 216 216 216 216 216 415 415 415 415
 87 87 87 87 386 386 192 192 192 192 192 204 204 204 204 204 177 177 202 202
 202 216 216 216 216 216 216 415 415 286 87 87 87 386 386 386 386 192 192 192
 192 204 204 204 204 177 177 177 202 202 202 202 216 216 216 216 216 286 286 286
 286 198 198 198 198 386 386 192 192 192 192 204 204 204 204 177 177 177 202 202
 202 202 202 216 216 216 286 286 286 286 286 286 198 198 198 386 386 386 192 192
 199 199 204 204 204 177 177 177 202 202 202 202 202 216 216 228 228 286 286 286
 286 286 198 198 198 21 21 386 199 199 199 199 199 204 172 126 126 126 126 202
 202 202 131 304 228 228 228 228 286 286 286 286 198 198 21 21 21 199 199 199
 199 199 199 199 172 126 126 126 126 221 221 221 194 194 228 228 228 228 286 286
 286 286 286 332 21 21 21 199 199 199 199 199 241 241 241 89 89 89 221 221
 221 221 221 171 171 171 228 228 286 286 286 286 332 332 332 21 21 199 199 199
 241 241 241 241 241 89 89 89 89 221 221 221 171 171 171 171 171 171 286 286
 286 286 332 332 332 332 199 199 199 199 241 241 241 241 241 89 89 89 89 89
 221 292 171 171 171 171 171 171 39 39 286 332 332 332 332 380 380 199 328 328
 241 241 241 241 241 89 89 89 89 89 148 292 292 171 171 171 171 171 39 39
 309 309 309 309 309 380 380 328 328 328 241 241 241 241 418 418 418 89 89 148
 148 292 292 292 171 171 171 171 39 309 309 309 309 309 309 309 334 334 328 328
 241 241 241 418 418 418 418 418 148 148 148 292 292 148 301 301 301 301 309 309
 309 309 309 309 309 309 334 334 334 328 241 27 27 418 418 418 418 418 148 148
 148 148 148 148 301 301 301 301 301 309 309 309 309 309 309 309 334 334 334 334
 92 92 27 92 418 418 418 418 191 191 148 148 148 148 301 301 301 301 391 391
 309 309 309 309 309 309 334 334 334 334 92 92 92 92 92 92 176 176 191 191
 191 148 148 148 301 301 301 391 391 391 391 309 309 309 309 309 267 267 267 267
 92 92 92 92 92 92 176 176 176 191 191 148 148 148 301 301 301 391 391 391
 391 232 232 232 232 267 267 267 267 267 92 92 92 92 92 92 176 176 176 310
 310 148 148 148 301 301 301 391 391 391 232 232 232 232 232 267 267 267 267 267
 24 24 92 92 92 249 249 249 310 310 310 310 23 23 23 254 254 254 232 232
 232 232 232 232 232 267 267 267 273 24 24 24 24 92 92 249 249 249 310 310
 310 310 23 23 23 254 254 254 232 232 232 232 232 232 232 267 273 273 273 24
 134 134 134 92 249 249 249 249 310 310 310 74 145 145 145 254 254 254 254 232
 232 232 232 232 212 212 273 273 273 293 134 134 134 134 249 249 249 74 74 74
 74 74 145 145 145 254 254 254 254 232 232 232 232 212 212 212 293 293 293 345
 345 345 134 134 249 249 249 74 74 74 74 74 145 145 158 158 158 254 254 232
 232 232 212 212 212 212 293 293 293 345 207 207 207 207 249 242 242 242 74 74
 74 74 74 145 158 158 158 254 254 128 128 128 128 128 212 355 293 293 207 207
 207 207 207 207 242 242 242 242 242 118 118 74 74 158 158 158 158 240 240 128
 128 128 128 128 128 355 142 293 207 207 207 207 207 207 242 242 242 242 242 351
 118 118 244 244 244 225 240 240 240 128 128 128 128 128 128 142 142 142 207 207
 345 345 195 195 242 242 40 40 351 351 351 351 244 244 244 225 415 240 415 415
 128 128 128 119 119 142 142 142 142 345 195 195 195 195 195 40 40 40 351 351
 351 351 244 244 244 225 415 415 415 415 128 128 119 119 119 142 142 142 196 196
 195 195 195 195 195 40 40 40 351 351 351 351 244 244 225 225 415 415 415 415
 87 87 87 119 119 142 142 142 196 196 195 195 195 195 15 15 15 40 351 351
 351 351 216 216 216 225 415 415 415 415 87 87 87 119 119 142 142 192 192 192
 192 204 204 204 15 15 15 15 279 279 279 216 216 216 216 216 415 415 415 415
 87 87 87 87 386 386 386 192 192 192 192 204 204 204 15 15 15 177 279 279
 279 216 216 216 216 216 251 251 251 286 87 87 87 386 386 386 386 192 192 192
 192 204 204 204 15 15 177 177 177 202 202 216 216 216 216 216 216 251 286 286
 286 198 198 198 386 386 386 386 192 192 192 204 204 204 204 177 177 177 177 202
 202 202 304 304 304 304 304 286 286 286 286 198 198 198 198 386 386 386 192 192
 199 199 204 204 172 172 177 177 177 202 202 202 304 304 304 304 228 286 286 286
 286 286 198 198 198 386 386 386 199 199 199 199 199 172 172 172 172 177 177 180
 202 202 194 304 304 228 228 228 286 286 286 286 198 198 386 386 386 199 199 199
 199 199 199 172 172 172 172 172 126 221 221 194 194 194 194 228 228 228 286 286
 286 286 20 20 20 386 386 199 199 199 199 241 241 241 172 172 89 89 221 221
 221 194 194 194 348 228 228 228 286 286 286 286 20 20 20 380 386 199 199 199
 241 241 241 241 241 89 89 89 17 17 17 194 194 348 348 171 171 57 57 286
 286 286 332 380 380 380 380 199 199 199 241 241 241 241 241 89 89 89 17 17
 17 348 348 348 348 171 171 57 57 57 286 332 332 380 380 380 380 380 328 328
 241 241 241 241 241 89 89 89 17 17 17 292 348 348 348 171 171 57 57 57
 309 309 309 309 380 380 380 380 328 328 333 333 333 241 418 418 414 414 414 148
 292 292 292 292 348 171 171 57 57 309 309 309 309 309 309 380 334 334 328 328
 333 333 333 418 418 418 414 414 414 148 292 292 292 292 301 301 301 301 301 309
 309 309 309 309 309 309 334 334 334 370 333 27 27 27 418 418 418 414 148 148
 292 292 292 301 301 301 301 301 301 309 309 309 309 309 309 334 334 334 334 370
 27 27 27 27 316 316 418 191 191 191 191 148 148 301 301 301 301 301 391 391
 309 309 309 309 309 334 334 334 334 370 92 27 27 27 92 316 316 191 191 191
 191 148 148 301 301 301 301 301 391 391 391 309 309 309 309 334 334 334 334 370
 92 92 92 92 92 92 176 176 191 191 191 148 148 301 301 301 301 391 391 391
 391 232 309 309 267 267 267 267 267 267 92 92 92 92 92 92 176 176 310 310
 310 310 148 301 301 301 301 391 391 391 232 232 232 232 267 267 267 267 267 267
 24 24 24 24 159 159 159 310 310 310 310 310 23 23 23 23 49 49 49 122
 122 232 305 305 305 112 112 112 112 24 24 24 24 24 159 159 159 74 310 310
 310 74 23 23 23 23 254 49 49 49 232 232 305 305 305 212 293 293 293 24
 24 24 24 24 159 159 159 74 74 74 74 74 23 23 23 254 254 254 254 232
 232 212 212 212 212 212 293 293 293 293 345 24 24 24 249 249 74 74 74 74
 74 74 74 145 145 254 254 254 254 232 232 212 212 212 212 212 293 293 293 293
 345 345 345 345 249 74 74 74 74 74 74 74 74 145 158 158 158 254 254 232
 232 212 212 212 212 212 293 293 293 345 345 345 345 345 345 74 74 74 74 74
 74 74 74 158 158 158 158 158 254 128 128 128 128 212 212 212 293 293 293 345
 345 345 345 345 345 326 326 326 326 74 74 74 244 158 158 158 158 240 240 128
 128 128 128 128 128 142 142 142 345 345 345 345 345 345 242 326 326 326 326 351
 351 244 244 244 244 396 240 240 240 91 128 128 128 128 128 142 142 142 345 345
 345 345 345 385 40 40 40 40 351 351 351 244 244 244 244 396 396 396 396 396
 128 128 128 128 142 142 142 142 142 345 353 195 195 195 40 40 40 40 40 351
 351 244 244 244 244 396 396 396 396 396 128 128 128 119 119 142 142 142 142 353
 353 195 321 321 321 40 40 40 40 351 351 244 244 244 244 396 396 396 396 396
 87 87 87 119 119 142 142 142 142 353 192 195 321 321 321 15 15 40 40 279
 279 279 216 244 244 396 396 396 396 396 87 87 87 289 289 142 142 192 192 192
 192 68 321 321 15 15 15 15 279 279 279 279 216 216 216 216 251 251 251 396