# vtk DataFile Version 2.0
Data set from IO Version 6.4.197.9a0dee2
ASCII

DATASET RECTILINEAR_GRID
DIMENSIONS 31 31 31
X_COORDINATES 31 float
-4.700000 4.700000 14.099999 23.500000 32.899998 42.299999 51.699997 61.099995 70.500000 79.900002 89.300003 98.699997 108.099998 117.500000 126.899994 136.300003 145.699997 155.099991 164.500000 173.899994 183.300003 
192.699997 202.099991 211.500000 220.899994 230.299988 239.699997 249.099991 258.499969 267.899963 277.299988 
Y_COORDINATES 31 float
-4.700000 4.700000 14.099999 23.500000 32.899998 42.299999 51.699997 61.099995 70.500000 79.900002 89.300003 98.699997 108.099998 117.500000 126.899994 136.300003 145.699997 155.099991 164.500000 173.899994 183.300003 
192.699997 202.099991 211.500000 220.899994 230.299988 239.699997 249.099991 258.499969 267.899963 277.299988 
Z_COORDINATES 31 float
-4.700000 4.700000 14.099999 23.500000 32.899998 42.299999 51.699997 61.099995 70.500000 79.900002 89.300003 98.699997 108.099998 117.500000 126.899994 136.300003 145.699997 155.099991 164.500000 173.899994 183.300003 
192.699997 202.099991 211.500000 220.899994 230.299988 239.699997 249.099991 258.499969 267.899963 277.299988 
CELL_DATA 27000
SCALARS FeatureIds int 1
LOOKUP_TABLE default
 385 385 385 385 221 221 221 146 146 246 246 246 347 143 143 382 382 129 129 129
 264 264 264 264 264 264 54 54 54 54 385 385 385 385 221 221 146 146 146 146
 246 246 143 143 143 382 202 202 129 129 69 69 264 264 364 364 348 54 54 54
 258 15 385 385 221 251 146 146 146 146 246 246 143 143 143 382 202 202 129 129
 69 69 264 264 364 364 348 348 258 258 258 15 15 251 251 251 251 251 146 146
 86 372 372 372 372 308 308 308 308 308 69 264 264 364 318 318 348 348 258 258
 258 15 251 251 251 251 251 251 86 86 86 86 372 372 372 308 308 308 308 94
 94 94 264 318 318 318 318 348 258 258 179 179 179 251 251 251 251 26 86 86
 86 86 86 39 39 64 64 64 308 94 94 94 85 318 318 318 318 318 258 258
 179 179 179 251 251 251 251 26 86 86 86 86 23 39 39 39 64 64 64 94
 94 85 85 318 318 318 318 318 318 179 179 179 179 179 251 251 251 86 86 86
 86 23 23 87 39 39 64 64 64 85 85 85 85 318 318 318 318 318 318 179
 179 179 179 179 251 275 275 275 275 86 23 23 23 87 87 39 39 80 80 77
 85 85 85 318 318 265 250 250 250 179 342 342 342 179 275 275 275 275 275 23
 23 23 87 87 87 39 80 80 80 77 77 77 77 318 265 265 250 250 250 342
 342 342 342 90 90 97 275 275 275 23 23 87 87 87 87 350 80 80 77 77
 77 77 77 77 250 250 250 250 250 342 217 90 90 90 90 97 97 97 275 210
 23 87 87 87 350 350 350 80 77 77 77 77 77 77 250 250 250 250 250 250
 217 90 90 90 90 90 97 97 210 210 210 210 134 134 134 350 350 77 77 77
 77 77 77 88 44 44 44 169 169 169 169 90 90 90 90 90 97 38 210 210
 210 210 134 134 134 134 350 319 319 319 205 205 205 88 44 44 44 169 169 169
 169 90 90 90 90 90 210 210 210 210 210 210 134 134 134 293 293 319 319 319
 205 205 205 88 44 44 44 169 169 169 169 90 90 90 90 90 210 210 210 210
 210 210 210 293 293 293 293 293 205 205 205 205 205 205 44 371 371 169 169 169
 301 301 301 90 16 16 149 149 210 210 210 231 231 293 293 293 293 293 205 205
 205 205 205 157 157 371 371 371 167 301 301 301 301 16 16 16 149 149 149 210
 231 231 231 293 293 293 293 293 205 205 166 166 157 157 157 371 371 371 371 301
 301 301 301 301 16 16 149 149 149 276 276 231 231 293 293 293 293 293 20 205
 166 166 157 157 157 371 371 371 371 301 301 301 301 148 148 35 35 35 276 276
 276 276 231 273 273 273 273 226 20 20 20 355 355 157 157 371 371 371 190 190
 190 301 148 148 148 35 35 35 35 276 276 276 273 273 273 273 273 226 20 20
 355 355 355 355 327 327 327 190 190 190 190 301 313 313 313 35 35 35 35 35
 276 276 273 273 273 273 273 273 20 20 355 355 355 355 327 327 327 190 190 190
 158 158 313 313 313 35 35 35 35 109 109 109 407 407 407 407 407 407 226 355
 355 355 355 355 327 327 327 158 158 158 158 123 123 123 194 194 35 35 109 109
 109 109 407 407 407 407 407 407 407 355 355 355 355 355 327 327 327 158 158 158
 123 123 123 123 194 194 194 194 109 109 109 109 407 407 407 407 407 407 407 355
 355 355 71 71 71 110 110 110 110 158 123 123 123 405 194 194 194 194 109 109
 109 246 407 407 407 407 407 233 233 233 355 71 71 71 71 110 110 110 110 110
 123 123 123 405 194 194 194 194 246 246 246 246 246 407 407 407 233 233 4 4
 4 71 71 71 71 110 110 110 110 110 59 385 385 385 194 194 194 194 246 246
 246 246 246 246 360 360 360 4 4 4 4 214 264 264 264 110 110 110 110 59
 385 385 385 385 194 194 194 246 246 246 246 246 246 246 360 360 360 4 4 4
 214 214 264 264 264 110 110 54 54 54 385 385 385 385 221 221 221 246 246 246
 246 246 347 347 360 360 382 129 129 129 214 214 264 264 264 264 54 54 54 54
 54 385 385 221 221 221 221 146 146 246 246 246 246 382 382 382 382 202 129 129
 214 214 214 364 364 364 54 54 54 54 178 178 178 221 221 221 221 146 146 146
 246 246 246 143 382 382 202 202 129 129 264 69 364 364 364 364 54 54 54 54
 178 178 178 178 221 221 146 146 146 146 246 246 143 143 382 382 202 202 308 308
 264 364 364 364 364 364 348 348 348 258 258 178 178 251 251 251 251 251 146 146
 86 372 372 372 372 308 308 308 308 308 264 364 364 364 364 364 348 348 348 258
 258 179 251 251 251 251 251 251 86 86 86 86 372 372 308 308 308 308 308 308
 308 94 364 318 318 318 348 348 348 258 179 179 179 251 251 251 251 251 86 86
 86 86 86 39 39 39 308 308 308 308 85 85 85 318 318 318 318 318 348 179
 179 179 179 179 251 251 251 251 86 86 86 86 23 39 39 39 39 308 308 308
 85 85 85 318 318 318 318 318 318 179 179 179 179 179 251 251 251 86 86 86
 86 23 23 39 39 39 39 39 308 85 85 85 85 318 318 318 318 318 318 179
 179 179 179 179 251 275 275 275 275 86 23 23 396 396 39 39 39 80 80 85
 85 85 85 318 265 265 265 250 250 179 179 179 179 179 275 275 275 275 275 275
 23 23 396 396 396 39 80 80 80 77 77 77 77 77 265 265 265 250 250 179
 22 22 90 90 90 275 275 275 275 275 23 87 396 396 396 350 80 80 80 77
 77 77 77 44 265 265 250 250 250 179 217 217 90 90 90 90 275 275 275 275
 23 87 87 396 350 350 350 80 77 77 77 285 285 44 44 44 44 250 250 217
 217 217 90 90 90 90 97 38 38 38 210 134 134 134 134 350 350 319 319 77
 77 285 285 44 44 44 44 44 169 217 217 217 90 90 90 90 38 38 38 38
 210 134 134 134 134 134 350 319 319 319 205 205 205 44 44 44 44 44 169 217
 217 217 90 90 90 90 38 38 38 38 210 210 134 134 134 134 319 319 319 319
 205 205 205 44 44 44 44 44 169 169 217 217 90 90 90 16 38 38 38 210
 210 210 210 134 293 293 293 293 319 319 205 205 205 44 44 44 371 371 371 169
 301 301 301 16 16 16 16 149 210 210 210 231 231 293 293 293 293 293 205 205
 166 166 166 166 371 371 371 371 371 301 301 301 301 16 16 16 16 149 149 210
 231 231 231 231 293 293 293 293 166 166 166 166 166 166 371 371 371 371 371 301
 301 301 301 16 16 16 16 149 276 276 276 231 231 231 293 273 293 273 20 166
 166 166 166 248 371 371 371 371 371 190 190 301 301 148 16 16 35 276 276 276
 276 276 231 273 273 273 273 273 20 20 20 355 355 248 248 371 371 371 190 190
 190 190 313 313 313 35 35 35 276 276 276 276 276 273 273 273 273 273 20 20
 355 355 355 248 327 327 327 190 190 190 190 190 313 313 313 35 35 35 35 276
 276 276 273 273 273 273 273 273 20 20 355 355 355 355 327 327 327 190 190 190
 255 255 313 313 313 35 35 35 109 109 109 109 407 273 273 273 273 273 226 355
 355 355 355 355 327 327 327 158 255 255 255 123 123 123 194 194 194 35 109 109
 109 109 407 407 407 407 407 407 407 355 355 355 355 355 327 327 327 255 255 255
 255 123 123 194 194 194 194 194 109 109 109 109 407 407 407 407 407 233 233 355
 355 355 71 71 71 110 110 110 255 255 123 123 123 194 194 194 194 194 109 109
 109 246 246 407 407 407 233 116 233 233 355 355 71 71 71 110 110 110 110 110
 123 123 123 194 194 194 194 194 246 246 246 246 246 246 407 407 233 233 233 4
 214 71 71 71 71 110 110 110 110 110 59 385 385 194 194 194 194 194 246 246
 246 246 246 246 360 360 233 4 4 214 214 214 214 264 71 110 110 110 110 59
 54 385 385 385 194 194 194 246 246 246 246 246 246 246 360 360 382 382 4 214
 214 214 214 264 264 110 110 54 54 54 54 385 385 221 221 221 221 246 246 246
 246 246 246 246 360 360 382 382 129 214 214 214 214 264 364 364 54 54 54 54
 178 178 178 221 221 221 221 146 146 246 246 246 246 382 382 382 382 382 357 214
 214 214 364 364 364 364 364 54 54 54 178 178 178 221 221 221 221 146 146 246
 246 246 246 382 162 162 202 202 357 357 364 364 364 364 364 364 364 54 54 178
 178 178 178 178 221 221 146 146 146 146 246 246 246 382 162 162 162 308 357 357
 364 364 364 364 364 364 364 348 348 178 178 178 178 251 251 251 251 251 146 146
 86 246 372 308 308 308 308 308 308 308 364 364 364 364 364 364 348 348 348 258
 178 178 178 251 251 251 251 251 251 86 86 86 308 308 308 308 308 308 308 308
 308 364 364 364 364 364 348 348 348 348 179 179 179 251 251 251 251 251 251 86
 86 86 86 308 308 308 308 308 308 308 308 85 85 318 318 318 318 318 348 179
 179 179 179 179 251 251 251 251 86 86 86 86 39 39 39 39 308 308 308 308
 85 85 85 318 318 318 318 318 179 179 179 179 179 179 251 251 251 275 86 86
 86 23 23 39 39 39 39 308 308 308 85 85 85 318 318 318 318 318 179 179
 179 179 179 179 251 275 275 275 275 369 86 23 396 396 39 39 39 80 80 308
 85 85 85 85 265 265 265 250 91 179 22 22 22 22 275 275 275 275 275 369
 369 396 396 396 396 39 80 80 80 77 77 77 77 265 265 265 265 250 91 91
 22 22 22 90 90 275 275 275 275 369 369 396 396 396 396 350 80 80 80 77
 77 77 77 44 44 265 265 250 91 91 217 217 217 90 90 90 275 275 275 369
 369 391 396 396 350 350 350 80 77 77 77 285 285 44 44 44 44 44 217 217
 217 217 217 90 90 90 90 38 38 38 240 134 134 134 134 350 350 319 319 77
 77 285 44 44 44 44 44 44 217 217 217 217 217 90 90 90 90 38 38 38
 240 134 134 134 134 134 134 319 319 319 205 205 44 44 44 44 44 44 44 217
 217 217 217 90 90 90 38 38 38 240 240 240 134 134 134 134 319 319 319 319
 205 205 44 44 44 44 44 44 44 217 217 217 217 90 90 90 38 38 240 240
 240 240 134 134 293 293 293 319 319 319 205 205 205 44 44 44 44 371 371 217
 301 301 217 90 16 16 16 240 240 240 240 231 231 231 293 293 293 293 319 205
 166 166 166 44 371 371 371 371 371 301 301 301 301 16 16 16 16 340 340 340
 340 231 231 231 293 293 293 293 166 166 166 166 166 166 371 371 371 371 371 301
 301 301 301 301 16 16 16 340 340 340 276 231 231 231 273 273 273 273 20 166
 166 166 166 248 248 371 371 371 371 190 190 301 301 301 16 16 35 276 276 276
 276 276 231 273 273 273 273 273 20 20 355 355 248 248 248 248 371 371 190 190
 190 190 313 313 313 35 35 35 276 276 276 276 276 273 273 273 273 273 20 20
 355 355 355 248 248 248 248 190 190 190 190 190 313 313 313 35 35 35 35 276
 276 276 273 273 273 273 273 273 20 20 355 355 355 248 248 327 327 190 190 190
 255 255 313 313 313 313 35 35 109 109 109 109 273 273 273 273 273 273 363 363
 355 355 355 248 248 327 327 255 255 255 255 255 123 194 194 194 194 194 109 109
 109 109 273 273 273 273 273 273 363 363 363 355 355 248 248 248 327 255 255 255
 255 255 123 194 194 194 194 194 109 109 109 109 407 407 407 407 407 233 233 363
 363 355 71 71 71 25 25 255 255 255 255 255 123 194 194 194 194 194 109 109
 109 246 246 407 407 407 233 233 233 363 363 71 71 71 71 25 25 110 255 255
 255 255 194 194 194 194 194 194 194 246 246 246 246 246 407 382 233 233 233 233
 214 71 71 71 71 25 110 110 110 255 59 385 194 194 194 194 194 194 246 246
 246 246 246 246 382 382 382 233 233 214 214 214 214 71 71 110 110 110 110 54
 54 385 385 385 194 194 194 246 246 246 246 246 246 246 382 382 382 382 382 214
 214 214 214 364 364 364 54 54 54 54 54 178 178 221 221 221 221 246 246 246
 246 246 246 382 382 382 382 382 129 214 214 214 214 364 364 364 54 54 54 54
 178 178 178 221 221 221 221 236 236 236 246 246 246 382 382 382 382 357 357 357
 364 364 364 364 364 364 364 54 54 178 178 178 178 178 221 221 221 236 236 236
 236 246 246 162 162 162 162 357 357 357 364 364 364 364 364 364 364 364 54 178
 178 178 178 178 221 221 107 236 236 236 236 236 246 162 162 162 162 357 357 357
 364 364 364 364 364 364 364 348 348 178 178 178 178 178 251 251 251 251 236 236
 236 236 308 308 308 308 308 308 308 308 364 364 364 364 364 364 364 348 348 178
 178 178 178 251 251 251 251 251 251 86 236 236 308 308 308 308 308 308 308 308
 308 364 364 364 364 364 364 348 348 348 179 179 179 251 251 251 251 251 251 323
 323 323 339 308 308 308 308 308 308 308 308 85 364 364 318 318 318 318 348 179
 179 179 179 179 251 251 251 251 323 323 323 323 339 39 308 308 308 308 308 308
 308 41 85 318 318 318 318 318 91 179 179 179 179 179 251 251 251 275 323 323
 323 323 339 39 39 308 308 308 308 308 308 41 41 318 318 318 318 91 91 91
 91 22 22 22 251 275 275 275 369 369 369 391 396 396 39 39 308 308 308 308
 308 41 85 85 265 265 265 91 91 91 22 22 22 22 22 275 275 275 369 369
 369 391 396 396 396 39 80 80 80 308 77 77 122 44 265 265 265 91 91 91
 22 22 22 22 22 275 275 275 369 369 391 391 391 396 396 350 80 80 80 77
 77 77 44 44 44 44 44 44 91 91 217 217 217 217 90 90 275 275 369 391
 391 391 391 396 350 350 350 80 77 77 77 285 44 44 44 44 44 44 44 217
 217 217 217 217 90 90 90 38 38 240 391 391 134 134 134 350 350 319 319 77
 77 285 44 44 44 44 44 44 44 217 217 217 217 217 90 90 90 240 240 240
 240 240 134 134 134 134 134 319 319 319 205 44 44 44 44 44 44 44 44 217
 217 217 217 217 90 376 376 240 240 240 240 240 134 134 134 134 319 319 319 319
 205 205 44 44 44 44 44 44 44 217 217 217 217 217 90 376 376 240 240 240
 240 240 240 134 293 293 293 319 319 319 205 205 44 44 44 44 44 44 44 217
 217 217 217 217 16 16 376 240 240 240 240 240 231 231 293 293 293 332 332 332
 166 166 166 44 44 44 371 371 371 217 301 301 301 16 16 16 16 340 340 340
 340 340 231 231 293 293 31 332 332 332 166 166 166 248 248 371 371 371 371 301
 301 301 301 301 16 16 16 340 340 340 340 340 231 231 273 273 31 31 31 332
 166 166 248 248 248 248 371 371 371 190 190 301 301 82 82 16 193 340 340 340
 276 276 231 273 273 273 273 31 20 20 355 248 248 248 248 248 248 371 190 190
 190 190 313 313 313 35 193 193 276 276 276 276 276 273 273 273 273 273 20 20
 355 355 248 248 248 248 248 190 190 190 190 228 228 313 313 35 35 35 35 276
 276 276 273 273 273 273 273 273 20 20 355 355 248 248 248 248 248 248 190 190
 255 228 228 228 313 194 194 35 109 109 109 109 273 273 273 273 273 273 363 363
 363 355 248 248 248 248 248 248 255 255 255 228 228 228 194 194 194 194 109 109
 109 109 273 273 273 273 273 363 363 363 363 355 248 248 248 248 248 89 255 255
 255 228 228 194 194 194 194 194 109 109 109 109 407 407 407 407 407 233 363 363
 363 363 248 235 25 25 25 89 89 255 255 228 228 194 194 194 194 194 109 109
 109 246 246 389 389 389 378 378 378 363 363 235 235 235 25 25 25 89 89 89
 344 344 194 194 194 194 194 194 194 246 246 246 246 389 389 389 378 378 378 378
 284 284 71 235 25 25 25 89 89 89 344 344 178 194 194 194 194 209 246 246
 246 246 246 389 389 389 378 378 378 378 284 284 284 364 25 25 25 89 344 344
 178 178 178 221 221 194 209 209 246 246 246 246 246 246 382 382 382 378 378 378
 284 284 284 364 364 364 54 54 54 54 178 178 178 221 221 221 221 209 246 246
 246 246 246 382 382 382 382 382 357 357 284 284 364 364 364 364 364 54 54 54
 178 178 178 178 209 209 209 209 236 236 236 236 246 382 162 162 357 357 357 357
 284 284 364 364 364 364 364 364 54 178 178 178 178 178 221 209 209 236 236 236
 236 236 236 162 162 162 357 357 357 357 357 364 364 364 364 364 364 364 178 178
 178 178 178 178 178 107 107 107 236 236 236 236 236 162 162 162 357 357 357 357
 357 364 364 364 364 364 364 364 178 178 178 178 178 178 107 107 107 107 107 236
 236 236 236 308 308 308 308 357 357 357 357 364 364 364 364 364 364 364 178 178
 178 178 178 178 251 107 107 107 107 107 236 236 308 308 308 308 308 308 308 308
 308 364 364 364 364 364 364 401 348 178 179 179 179 251 251 107 107 107 323 323
 323 323 339 308 308 308 308 308 308 308 308 41 364 364 364 364 401 401 401 91
 179 179 179 179 251 251 251 323 323 323 323 323 339 339 339 308 308 308 308 308
 41 41 41 41 318 401 401 401 91 91 91 179 179 179 251 251 323 323 323 323
 323 323 339 339 339 308 308 308 308 308 41 41 41 41 41 318 401 91 91 91
 91 22 22 22 175 275 275 323 323 323 323 391 339 339 339 308 308 308 308 308
 41 41 41 41 122 265 91 91 91 91 91 22 22 22 175 128 128 128 369 369
 391 391 391 391 339 329 329 329 329 308 41 41 122 122 122 44 91 91 91 91
 22 22 22 22 175 128 128 128 128 391 391 391 391 391 391 329 329 329 329 329
 122 122 122 122 44 44 44 91 91 91 217 217 217 217 217 128 128 128 128 391
 391 391 391 391 391 329 329 329 329 77 77 44 44 44 44 44 44 44 44 217
 217 217 217 217 217 376 128 128 391 391 391 391 391 391 266 266 329 329 329 77
 77 44 44 44 44 44 44 44 44 217 217 217 217 217 217 376 376 240 240 240
 240 391 391 134 266 266 266 319 319 319 44 44 44 44 44 44 44 44 44 217
 217 217 217 217 376 376 376 240 240 240 240 240 240 134 266 266 266 319 319 319
 205 44 44 44 44 44 44 44 44 217 217 217 217 217 376 376 376 240 240 240
 240 240 240 132 132 266 266 332 332 332 332 44 44 44 101 101 101 44 44 217
 217 217 217 217 376 376 376 269 240 240 240 240 240 191 191 191 332 332 332 332
 332 166 44 44 44 101 325 325 325 325 301 82 82 82 269 269 269 269 340 340
 340 340 340 191 191 31 31 332 332 332 332 166 230 248 248 248 325 325 325 325
 82 82 82 82 269 269 269 269 340 340 340 340 340 191 191 31 31 31 31 332
 332 230 230 248 248 248 325 325 325 190 82 82 82 82 82 269 193 193 193 340
 276 276 17 17 17 17 31 31 31 332 230 230 230 248 248 248 248 325 190 190
 82 82 82 82 82 283 193 193 193 253 276 253 17 17 17 17 17 31 31 31
 355 248 248 248 248 248 248 248 190 190 228 228 228 228 228 283 193 193 253 253
 253 253 253 17 17 17 17 17 31 363 355 248 248 248 248 248 248 248 89 228
 228 228 228 228 228 194 253 253 253 253 253 253 253 17 17 17 17 159 363 363
 363 248 248 248 248 248 248 89 89 228 228 228 228 228 228 194 194 253 253 253
 253 253 253 273 273 17 159 159 363 363 363 363 248 248 248 248 89 89 89 89
 228 228 228 228 194 194 194 253 253 253 253 253 253 389 389 389 159 159 363 363
 363 235 235 235 235 25 89 89 89 89 228 228 228 228 194 194 194 253 253 253
 253 253 253 389 389 389 378 378 378 378 363 235 235 235 235 25 89 89 89 89
 344 344 228 228 194 194 209 209 209 209 246 246 246 389 389 389 378 378 378 378
 378 235 235 235 235 25 89 89 89 89 344 344 237 237 209 209 209 209 209 209
 246 246 246 389 389 389 378 378 378 378 284 284 284 284 235 25 89 89 344 344
 237 237 237 237 209 209 209 209 209 209 246 246 246 389 389 389 378 378 378 378
 284 284 284 284 364 364 364 344 344 344 237 237 237 237 209 209 209 209 209 236
 236 246 246 382 382 382 382 357 357 357 284 284 284 364 364 364 364 54 54 54
 237 237 237 178 209 209 209 209 236 236 236 236 236 357 357 357 357 357 357 357
 284 284 284 364 364 364 364 7 7 7 7 178 178 178 209 209 209 236 236 236
 236 236 236 357 357 357 357 357 357 357 284 284 364 364 364 364 364 7 7 7
 7 178 178 178 107 107 107 107 236 236 236 236 236 357 357 357 357 357 357 357
 357 364 364 364 364 364 364 7 7 7 178 178 178 178 107 107 107 107 107 236
 236 236 236 357 357 357 357 357 357 357 357 364 364 364 364 364 364 7 7 7
 196 178 178 107 107 107 107 107 107 107 236 236 339 308 308 308 308 308 308 308
 308 41 364 364 364 364 401 401 196 196 196 280 280 280 107 107 107 107 107 323
 323 323 339 339 308 308 308 308 308 308 308 41 41 364 364 401 401 401 401 196
 280 280 280 280 251 107 107 323 323 323 323 323 339 339 339 308 308 308 308 308
 41 41 41 41 41 401 401 401 196 91 91 280 280 280 175 323 323 323 323 323
 323 323 339 339 339 308 308 308 308 308 41 41 41 41 41 401 401 91 91 91
 91 280 280 175 175 175 323 323 323 323 323 391 339 339 339 329 329 329 308 308
 41 41 41 41 122 122 401 91 91 91 91 22 175 175 175 175 128 128 391 391
 391 391 391 391 329 329 329 329 329 329 41 41 122 122 122 122 44 91 91 91
 175 175 175 175 175 175 128 128 128 391 391 391 391 391 329 329 329 329 329 329
 122 122 122 122 122 44 44 44 91 91 217 217 175 175 175 175 128 128 391 391
 391 391 391 391 329 329 329 329 329 329 122 122 122 122 44 44 44 44 44 217
 217 217 217 217 175 376 128 128 391 391 391 391 391 391 266 266 329 329 329 256
 44 44 44 44 44 44 44 44 44 217 217 217 217 217 376 376 376 376 240 391
 391 391 391 266 266 266 266 329 373 373 373 44 44 44 44 44 44 44 183 217
 217 217 217 217 376 376 376 376 240 240 240 391 132 132 266 266 266 266 373 373
 373 44 44 44 44 44 44 44 183 217 217 217 217 376 376 376 376 376 240 240
 240 240 132 132 132 266 266 373 373 373 373 373 44 44 101 101 101 325 183 217
 217 217 217 376 376 376 269 269 240 240 240 240 191 191 191 191 191 332 332 332
 332 332 230 44 101 101 325 325 325 325 82 82 82 82 269 269 269 269 269 340
 340 340 191 191 191 191 31 332 332 332 332 230 230 230 248 325 325 325 325 325
 82 82 82 82 269 269 269 193 193 340 340 340 191 191 191 191 31 31 31 332
 332 230 230 230 248 248 325 325 325 325 82 82 82 82 82 269 193 193 193 340
 340 253 191 191 17 17 31 31 31 332 392 230 230 230 248 248 248 325 325 325
 82 82 82 82 82 283 193 193 193 253 253 253 253 17 17 17 17 31 31 392
 392 392 230 248 248 248 248 325 325 228 228 228 228 82 82 283 283 253 253 253
 253 253 253 17 17 17 17 17 159 392 392 392 392 248 248 248 248 248 228 228
 228 228 228 228 228 283 253 253 253 253 253 253 253 17 17 17 17 159 159 392
 392 392 392 248 248 248 248 89 89 228 228 228 228 228 228 283 253 253 253 253
 253 253 253 17 17 17 159 159 159 159 392 392 392 248 248 248 89 89 89 89
 228 228 228 228 228 194 253 253 253 253 253 253 253 389 389 159 159 159 159 159
 363 235 235 235 235 235 89 89 89 89 89 228 228 228 228 194 253 253 253 253
 253 253 253 389 389 389 378 378 378 378 235 235 235 235 235 235 89 89 89 89
 344 344 228 228 209 209 209 209 209 209 253 253 389 389 389 389 378 378 378 378
 378 235 235 235 235 235 89 89 89 344 344 344 344 209 209 209 209 209 209 209
 209 246 389 389 389 389 378 378 378 378 284 284 284 284 235 235 89 344 344 344
 237 237 237 237 209 209 209 209 209 209 209 246 246 389 389 389 378 378 378 378
 284 284 284 284 364 364 364 344 344 344 237 237 237 237 209 209 209 209 209 209
 236 246 246 389 389 389 357 357 357 284 284 284 284 284 364 364 364 344 344 344
 7 237 237 237 209 209 209 209 209 236 236 236 236 357 357 357 357 357 357 357
 284 284 284 364 364 364 364 7 7 7 7 7 178 209 209 209 209 209 236 236
 236 236 236 357 357 357 357 357 357 357 284 284 284 364 364 364 364 7 7 7
 7 7 178 178 209 209 107 107 236 236 236 236 236 357 357 357 357 357 357 357
 357 364 364 364 364 364 364 7 7 7 196 196 178 178 107 107 107 107 107 236
 236 236 154 154 357 357 357 357 357 357 357 364 364 364 364 364 401 401 196 196
 196 196 196 107 107 107 107 107 107 107 236 236 154 154 154 308 308 308 308 308
 308 41 364 364 401 401 401 401 196 196 196 196 280 280 270 270 107 107 323 323
 323 323 339 339 339 308 308 308 308 308 41 41 41 41 401 401 401 401 196 196
 280 280 280 280 270 270 323 323 323 323 323 323 339 339 339 308 308 308 308 308
 41 41 41 41 401 401 401 401 196 196 280 280 280 280 175 270 323 323 323 323
 323 323 339 339 339 329 329 329 308 308 41 41 41 41 41 401 401 401 196 196
 280 280 280 175 175 175 74 74 323 323 391 391 391 339 339 329 329 329 329 329
 41 41 41 41 122 401 401 91 91 91 175 175 175 175 175 175 74 74 74 391
 391 391 391 391 329 329 329 329 329 329 41 122 122 122 122 122 44 91 91 91
 175 175 175 175 175 175 74 74 391 391 391 391 391 391 329 329 329 329 329 329
 122 122 122 122 122 44 44 44 282 91 175 175 175 175 175 175 74 128 391 391
 391 391 391 391 329 329 329 329 329 329 122 122 122 122 44 44 44 44 183 183
 217 217 175 175 175 175 74 391 391 391 391 391 391 266 266 266 329 329 329 256
 122 122 44 44 44 44 44 183 183 183 217 217 217 217 376 376 376 108 391 391
 391 391 391 266 266 266 266 329 373 373 373 44 44 44 44 44 44 183 183 183
 217 217 217 217 376 376 376 108 108 240 240 132 132 132 266 266 266 266 373 373
 373 373 44 44 44 44 1 183 183 183 217 217 217 376 376 376 376 108 108 108
 240 132 132 132 132 266 266 373 373 373 373 373 44 44 1 1 1 183 183 183
 186 82 82 376 376 269 269 269 269 240 240 191 191 191 191 191 191 373 373 373
 373 373 230 262 1 1 325 325 325 325 82 82 82 82 269 269 269 269 269 340
 340 191 191 191 191 191 191 31 332 332 332 332 230 230 262 325 325 325 325 325
 82 82 82 82 3 269 269 269 269 155 155 191 191 191 191 191 31 31 31 332
 332 230 230 230 230 248 325 325 325 325 82 82 82 82 82 269 269 193 193 155
 155 362 191 191 191 191 31 31 31 392 392 392 230 230 230 248 248 325 325 325
 82 82 82 82 82 283 283 193 253 253 253 253 253 191 17 17 17 31 31 392
 392 392 392 392 248 248 248 325 325 228 228 228 82 82 283 283 283 253 253 253
 253 253 253 17 17 17 17 159 159 392 392 392 392 392 248 248 248 248 228 228
 228 228 228 228 283 283 283 253 253 253 253 253 253 253 17 17 159 159 159 392
 392 392 392 392 248 248 89 89 89 228 228 228 228 228 283 283 253 253 253 253
 253 253 253 253 17 159 159 159 159 159 392 392 392 392 235 89 89 89 89 89
 228 228 228 228 228 283 253 253 253 253 253 253 253 253 159 159 159 159 159 159
 392 235 235 235 235 235 89 89 89 89 344 228 228 228 228 209 253 253 253 253
 253 253 253 390 389 389 159 159 159 159 320 235 235 235 235 235 89 89 89 89
 344 344 228 228 209 209 209 209 209 253 253 253 390 389 389 389 378 378 378 378
 378 235 235 235 235 235 89 89 344 344 344 344 344 209 209 209 209 209 209 209
 209 209 389 389 389 389 378 378 378 378 284 284 284 284 235 235 89 344 344 344
 344 237 237 237 209 209 209 209 209 209 209 209 389 389 389 389 378 378 378 378
 284 284 284 284 284 364 344 344 344 344 237 237 237 237 209 209 209 209 209 209
 209 209 246 389 389 357 357 357 357 284 284 284 284 284 364 364 344 344 344 344
 7 156 321 321 321 209 209 209 209 209 209 236 236 93 357 357 357 357 357 357
 284 284 284 364 364 364 344 344 344 7 7 156 156 321 321 209 209 209 209 236
 236 236 236 357 357 357 357 357 357 357 284 284 284 364 364 364 364 7 7 7
 7 156 156 321 321 209 209 209 209 236 236 236 154 154 357 357 357 357 357 357
 168 284 364 364 364 315 315 315 7 7 196 196 196 321 321 209 107 107 331 236
 236 154 154 154 154 357 357 357 357 357 168 168 168 364 315 315 315 315 196 196
 196 196 196 270 270 270 107 331 331 331 331 154 154 154 154 154 308 308 308 308
 168 168 168 315 315 315 401 315 196 196 196 196 280 270 270 270 270 331 331 331
 331 154 154 154 154 154 308 308 308 308 41 41 42 315 315 401 401 401 196 196
 196 280 280 270 270 270 270 323 323 323 323 323 154 154 154 154 308 308 308 308
 41 41 42 42 315 401 401 315 196 196 280 280 280 280 270 270 270 323 323 323
 323 391 154 154 154 329 329 329 329 329 41 41 42 42 315 315 315 315 196 196
 280 280 280 175 270 270 74 74 74 391 391 391 391 391 329 329 329 329 329 329
 41 41 42 122 127 315 315 315 282 282 282 175 175 175 175 175 74 74 74 391
 391 391 391 391 329 329 329 329 329 329 402 122 122 122 122 127 127 282 282 282
 175 175 175 175 175 175 74 74 74 391 391 391 391 391 329 329 329 329 329 256
 402 122 122 122 122 127 127 282 282 282 175 175 175 175 175 175 53 53 391 391
 391 391 391 391 329 329 329 256 256 256 402 122 122 122 44 44 44 183 282 282
 175 175 175 175 175 175 108 53 391 391 391 391 391 266 266 266 256 256 256 256
 402 122 122 44 44 44 1 183 183 183 217 175 175 175 175 108 108 108 243 243
 243 391 132 266 266 266 266 256 256 373 373 373 44 44 1 1 1 183 183 183
 183 186 186 186 376 108 108 108 108 243 243 132 132 132 266 266 266 373 373 373
 373 373 373 1 1 1 1 183 183 183 186 186 186 186 376 108 108 108 108 108
 243 132 132 132 132 266 266 373 373 373 373 373 373 1 1 1 1 183 183 183
 186 186 186 186 376 269 108 108 108 108 108 191 191 191 191 191 191 373 373 373
 373 145 262 262 1 1 1 1 183 183 82 82 82 82 3 269 269 269 108 108
 155 191 191 191 191 191 191 31 145 145 145 145 262 262 262 1 1 1 1 183
 82 82 82 3 3 269 269 269 155 155 155 191 191 191 191 191 31 31 31 332
 332 230 262 262 262 1 1 1 325 325 82 82 82 82 3 283 269 155 155 155
 155 362 191 191 191 191 31 31 31 392 392 392 392 392 141 141 141 141 325 124
 82 82 82 82 283 283 283 155 155 155 155 253 253 192 192 192 17 31 31 392
 392 392 392 392 141 141 141 141 141 124 82 82 82 82 283 283 283 253 253 253
 253 253 253 192 192 192 159 159 159 392 392 392 392 392 141 141 141 141 141 228
 228 228 228 283 283 283 283 253 253 253 253 253 253 192 192 159 159 159 159 392
 392 392 392 392 141 141 141 141 89 228 228 228 228 228 283 283 253 253 253 253
 253 253 253 192 192 159 159 159 159 159 392 392 392 133 133 141 89 89 89 89
 228 228 228 228 283 283 253 253 253 253 253 253 253 390 390 159 159 159 159 159
 320 133 133 133 133 133 89 89 89 89 344 344 228 119 119 253 253 253 253 253
 253 253 390 390 390 390 159 159 159 320 320 133 133 133 133 133 89 89 89 344
 344 344 344 119 209 209 209 209 209 253 253 253 390 390 390 389 378 378 378 320
 320 133 133 133 133 133 89 344 344 344 344 344 344 321 209 209 209 209 209 209
 209 209 390 390 389 389 378 378 378 378 284 133 133 133 133 133 89 344 344 344
 344 344 321 321 209 209 209 209 209 209 209 209 390 390 389 389 378 378 388 388
 284 284 284 284 133 133 344 344 344 344 344 344 321 321 209 209 209 209 209 209
 209 209 209 390 357 357 357 388 388 388 284 284 284 284 364 364 344 344 344 344
 156 156 156 321 321 321 209 209 209 209 209 209 93 93 113 65 388 388 388 388
 336 336 336 336 336 336 271 271 271 271 156 156 156 321 321 321 209 209 209 209
 254 254 93 93 93 65 357 388 388 388 336 336 336 336 364 315 315 271 271 271
 156 156 156 321 321 10 10 209 209 254 254 154 154 93 93 357 357 357 357 168
 168 168 168 168 315 315 315 315 315 271 196 196 156 321 321 10 10 10 331 331
 331 154 154 154 154 154 357 357 187 168 168 168 168 168 315 315 315 315 315 196
 196 196 196 270 270 270 10 331 331 331 331 154 154 154 154 154 154 187 187 168
 168 168 168 315 315 315 315 315 196 196 196 196 196 270 270 270 270 331 331 331
 331 154 154 154 154 154 154 187 187 42 42 42 42 315 315 315 315 315 196 196
 196 280 280 270 270 270 270 270 331 331 331 154 154 154 154 154 154 329 329 42
 42 42 42 42 315 315 315 315 196 196 280 280 280 270 270 270 270 270 53 331
 331 154 154 154 154 324 329 329 329 42 42 42 42 42 315 315 315 315 315 196
 280 280 175 175 270 270 270 53 53 53 391 391 391 324 324 324 329 329 329 402
 42 42 42 127 127 127 127 315 282 282 282 175 175 175 175 270 53 53 53 391