# vtk DataFile Version 2.0
Data set from IO Version 6.4.197.9a0dee2
ASCII

DATASET RECTILINEAR_GRID
DIMENSIONS 31 31 31
X_COORDINATES 31 float
-4.700000 4.700000 14.099999 23.500000 32.899998 42.299999 51.699997 61.099995 70.500000 79.900002 89.300003 98.699997 108.099998 117.500000 126.899994 136.300003 145.699997 155.099991 164.500000 173.899994 183.300003 
192.699997 202.099991 211.500000 220.899994 230.299988 239.699997 249.099991 258.499969 267.899963 277.299988 
Y_COORDINATES 31 float
-4.700000 4.700000 14.099999 23.500000 32.899998 42.299999 51.699997 61.099995 70.500000 79.900002 89.300003 98.699997 108.099998 117.500000 126.899994 136.300003 145.699997 155.099991 164.500000 173.899994 183.300003 
192.699997 202.099991 211.500000 220.899994 230.299988 239.699997 249.099991 258.499969 267.899963 277.299988 
Z_COORDINATES 31 float
-4.700000 4.700000 14.099999 23.500000 32.899998 42.299999 51.699997 61.099995 70.500000 79.900002 89.300003 98.699997 108.099998 117.500000 126.899994 136.300003 145.699997 155.099991 164.500000 173.899994 183.300003 
192.699997 202.099991 211.500000 220.899994 230.299988 239.699997 249.099991 258.499969 267.899963 277.299988 
CELL_DATA 27000
SCALARS FeatureIds int 1
LOOKUP_TABLE default
 250 250 203 203 183 183 183 183 185 185 185 185 185 185 245 245 245 286 62 62
 62 62 246 246 246 246 145 352 352 352 250 250 250 203 183 183 183 390 390 390
 185 185 185 245 245 245 245 286 176 91 62 303 246 246 246 246 145 352 352 352
 98 250 250 250 183 183 183 390 390 390 185 185 185 245 245 245 245 176 176 176
 176 176 246 246 246 246 98 98 98 352 98 98 137 137 137 137 183 390 390 390
 271 271 185 245 245 245 176 176 176 176 176 176 176 246 246 217 98 98 98 98
 98 98 137 137 137 137 229 229 271 271 271 271 271 273 273 273 176 176 176 176
 176 176 176 176 217 217 217 98 98 98 98 188 137 137 137 137 229 229 271 271
 271 271 271 273 273 273 273 176 176 176 176 176 176 217 217 217 217 98 98 98
 188 188 188 137 137 84 84 229 271 271 283 283 283 273 273 273 273 273 176 176
 176 176 176 217 217 217 217 98 98 98 188 188 188 188 84 84 84 343 343 343
 283 283 283 273 273 273 273 273 273 164 164 176 38 38 38 38 38 98 151 151
 188 188 188 255 84 84 84 343 343 343 343 343 343 273 273 273 273 273 164 164
 164 164 38 38 38 38 38 279 151 151 279 188 255 255 84 84 84 343 343 343
 343 343 343 273 273 273 196 196 164 164 164 119 38 38 38 38 38 279 279 279
 279 279 255 84 84 84 84 343 343 343 343 343 343 273 268 268 268 196 164 164
 119 119 119 38 38 38 38 279 279 279 279 279 84 84 84 84 84 84 343 343
 343 343 142 142 268 268 268 312 312 312 119 119 119 119 38 295 295 279 279 279
 354 354 354 84 84 84 127 127 127 158 158 142 142 142 142 142 142 312 312 312
 119 119 119 119 58 58 58 58 279 279 354 354 354 354 84 127 127 127 127 158
 158 142 142 142 142 142 142 312 312 312 312 119 119 58 58 58 58 58 58 354
 354 354 354 354 84 127 127 127 127 158 158 142 142 142 142 142 142 312 312 312
 312 119 100 100 100 58 58 258 258 354 354 354 354 354 351 351 127 127 127 158
 173 173 142 142 142 142 243 34 312 34 34 100 100 100 100 100 258 258 258 314
 322 322 322 322 97 97 97 97 97 97 173 173 173 173 142 142 34 34 34 34
 34 100 100 100 100 100 314 314 314 314 322 322 322 322 97 97 97 97 97 97
 173 173 173 173 173 34 34 34 34 34 34 100 100 100 100 100 314 314 314 322
 322 322 322 322 114 114 97 97 97 97 173 173 173 173 374 374 374 34 34 34
 34 34 100 100 385 385 385 314 314 322 322 322 322 322 114 114 114 97 97 97
 50 50 50 50 374 374 374 374 34 34 34 122 122 385 385 385 385 385 314 322
 322 76 76 76 114 114 114 114 221 221 50 50 50 50 178 374 374 205 205 82
 82 122 122 122 385 385 385 385 322 322 76 76 76 76 114 114 114 221 221 221
 221 50 50 178 178 205 205 205 82 82 82 122 122 122 263 385 385 385 310 76
 76 76 76 76 76 39 39 39 221 221 221 221 180 180 180 180 205 205 205 82
 122 122 122 122 122 263 263 310 310 76 76 76 76 76 76 39 39 39 39 259
 259 259 180 180 180 180 191 191 193 193 193 122 122 122 132 329 329 329 310 310
 197 270 270 76 39 39 39 39 39 373 373 373 180 180 180 191 191 191 193 193
 193 193 132 132 132 329 329 329 310 197 270 270 270 274 274 274 39 39 373 373
 373 373 180 180 191 191 191 191 193 193 193 132 132 132 329 329 329 329 310 197
 200 270 270 274 274 274 274 345 345 345 345 345 180 180 191 191 191 191 62 62
 62 132 132 132 329 329 329 329 200 200 200 270 274 274 274 274 274 345 345 345
 345 345 180 180 180 191 191 191 62 62 62 62 120 120 120 329 329 329 200 200
 200 203 203 274 274 274 274 345 345 345 345 185 185 185 180 180 180 62 62 62
 62 62 62 120 120 329 329 200 200 200 200 203 203 203 274 274 274 345 345 345
 185 185 185 185 245 245 245 62 62 62 62 62 62 120 120 145 145 200 200 200
 203 203 203 203 183 183 183 183 185 185 185 185 185 185 245 245 245 286 62 62
 62 62 246 246 246 246 145 145 145 145 203 203 203 203 183 183 183 183 390 185
 185 185 185 185 245 245 245 286 286 62 62 303 246 246 246 246 145 145 145 145
 98 98 250 203 183 183 183 183 390 390 185 185 185 245 245 245 245 286 176 176
 176 303 246 246 246 246 145 145 98 98 98 98 137 137 137 183 183 390 271 271
 271 271 185 245 245 245 245 176 176 176 176 289 289 246 246 217 217 98 98 98
 98 137 137 137 137 137 229 229 271 271 271 271 271 273 273 273 176 176 176 176
 176 176 289 217 217 217 217 98 98 98 98 137 137 137 137 137 229 229 271 271
 271 271 273 273 273 273 273 176 176 176 176 176 289 217 217 217 217 98 98 98
 98 188 137 137 137 84 84 229 271 271 271 271 273 273 273 273 273 273 176 176
 176 176 176 217 217 217 217 98 98 98 151 188 188 137 84 84 84 343 343 343
 343 343 273 273 273 273 273 273 273 164 176 176 38 38 38 38 38 98 151 151
 151 188 188 84 84 84 84 343 343 343 343 343 343 273 273 273 273 196 196 164
 164 164 38 38 38 38 38 279 151 151 279 279 84 84 84 84 84 343 343 343
 343 343 343 273 273 273 196 196 196 164 164 119 38 38 38 38 38 279 279 279
 279 279 84 84 84 84 84 343 343 343 343 343 343 273 268 268 196 196 164 164
 119 119 119 38 38 295 295 279 279 279 279 129 129 84 84 84 84 343 343 343
 343 343 343 142 268 268 268 312 312 119 119 119 119 119 295 295 295 279 279 279
 354 354 354 84 84 84 84 127 343 343 343 142 142 142 142 124 124 312 312 312
 119 119 119 58 58 58 58 58 279 279 354 354 354 354 84 127 127 127 127 158
 158 142 142 142 142 124 124 312 312 312 119 119 119 58 58 58 58 58 58 354
 354 354 354 354 351 351 127 127 127 158 158 142 142 142 142 124 124 243 243 243
 119 119 100 100 58 58 58 58 58 354 354 354 354 354 351 351 351 351 351 173
 173 173 173 302 302 124 243 243 243 243 243 100 100 100 100 58 58 58 314 314
 322 322 322 351 351 351 351 351 97 173 173 173 173 173 302 302 34 34 34 34
 34 100 100 100 100 100 314 314 314 314 322 322 322 114 114 114 97 97 97 97
 173 173 173 173 302 34 34 34 34 34 34 34 100 100 100 100 314 314 314 314
 322 322 322 114 114 114 114 97 97 97 173 173 173 173 173 374 34 34 34 34
 34 34 100 100 385 385 385 314 314 314 322 76 76 114 114 114 114 97 97 97
 50 50 50 173 205 205 205 34 34 34 34 34 122 385 385 385 385 385 314 322
 76 76 76 76 114 114 114 114 259 259 50 50 50 50 205 205 205 205 205 82
 82 122 122 122 385 385 385 385 385 76 76 76 76 76 114 114 114 259 259 259
 259 259 50 50 205 205 205 205 82 82 82 122 122 122 385 385 385 385 310 76
 76 76 76 76 242 242 242 259 259 259 259 259 259 180 180 205 205 205 205 82
 82 122 122 122 122 263 310 310 310 310 310 76 76 76 242 242 242 242 259 259
 259 259 259 180 180 180 180 205 205 205 193 122 122 122 329 329 329 310 310 310
 310 270 270 76 242 242 242 242 259 373 259 259 259 180 180 180 180 191 205 193
 193 193 132 132 329 329 329 310 310 310 270 270 270 274 274 274 242 242 373 373
 373 259 180 180 180 180 180 191 193 193 193 132 132 132 329 329 329 329 310 310
 270 270 270 274 274 274 274 274 373 373 373 373 180 180 180 180 180 191 62 62
 62 62 120 120 329 329 329 329 200 200 200 203 274 274 274 274 274 274 345 345
 345 185 180 180 180 180 180 191 62 62 62 62 120 120 120 329 329 329 200 200
 203 203 203 274 274 274 274 274 345 345 185 185 185 185 180 180 180 62 62 62
 62 62 120 120 120 329 145 145 200 200 203 203 203 203 274 274 274 274 345 185
 185 185 185 185 245 245 245 62 62 62 62 62 62 120 120 145 145 145 145 200
 203 203 203 203 183 183 183 183 185 185 185 185 185 185 245 245 245 286 62 62
 62 62 246 246 246 145 145 145 145 145 203 203 203 203 183 183 183 183 185 185
 185 185 185 185 245 245 245 286 286 62 62 303 246 246 246 145 145 145 145 145
 98 203 203 203 183 183 183 183 390 185 185 185 185 185 245 245 245 286 286 176
 289 289 289 246 246 145 145 145 145 145 98 98 137 137 137 183 183 271 271 271
 271 271 185 185 245 245 245 176 176 176 289 289 289 289 246 217 217 145 98 98
 98 137 137 137 137 137 229 229 271 271 271 271 271 273 273 273 176 176 176 30
 289 289 289 289 217 217 217 98 98 98 98 137 137 137 137 137 229 229 271 271
 271 271 271 273 273 273 273 273 30 30 30 289 289 289 217 217 217 98 98 98
 98 137 137 137 137 84 84 229 271 271 271 271 273 273 273 273 273 273 30 30
 30 289 289 217 217 217 217 98 98 98 151 188 137 84 84 84 84 84 343 343
 343 343 343 273 273 273 273 273 273 30 30 349 349 38 38 38 217 151 151 151
 279 279 84 84 84 84 84 343 343 343 343 343 343 273 273 273 273 196 196 164
 349 349 349 38 38 38 38 279 279 151 279 279 84 84 84 84 84 343 140 343
 343 343 343 273 273 273 196 196 196 164 349 349 349 38 38 38 38 279 279 279
 279 129 129 84 84 84 84 343 343 343 343 343 343 273 273 273 196 196 196 119
 119 119 119 119 38 295 295 279 279 279 129 129 129 129 84 84 84 343 343 343
 343 343 343 124 124 124 124 124 312 119 119 119 119 119 295 295 295 279 279 279
 129 129 129 129 84 84 84 343 343 343 343 343 142 124 124 124 124 124 312 312
 119 119 119 58 58 58 58 58 58 129 354 354 354 129 129 84 127 127 22 22
 22 142 142 124 124 124 124 124 312 312 119 119 119 58 58 58 58 58 58 354
 354 354 354 129 351 351 351 351 22 22 22 22 142 124 124 124 124 243 243 243
 243 119 100 58 58 58 58 58 58 354 354 354 354 351 351 351 351 351 22 22
 22 173 302 302 302 124 243 243 243 243 243 100 100 100 100 58 58 58 314 314
 322 134 134 351 351 351 351 351 22 22 173 173 173 302 302 302 243 34 34 34
 34 287 100 100 100 100 314 314 314 314 322 322 134 114 351 351 351 351 97 173
 173 173 173 302 302 302 34 34 34 34 34 34 100 100 100 385 314 314 314 314
 76 76 76 114 114 114 114 97 97 97 173 173 173 173 302 34 34 34 34 34
 34 34 387 100 385 385 385 314 314 314 76 76 76 114 114 114 114 97 97 97
 50 50 50 50 205 205 205 205 34 34 34 387 387 385 385 385 385 385 314 76
 76 76 76 76 114 114 114 114 259 259 259 50 50 205 205 205 205 205 205 205
 205 205 387 385 385 385 385 385 310 76 76 76 76 76 114 114 114 259 259 259
 259 259 259 205 205 205 205 205 205 205 82 122 122 122 385 385 385 310 310 310
 310 76 76 76 242 242 242 259 259 259 259 259 259 259 205 205 205 205 205 205
 205 122 122 122 329 385 310 310 310 310 310 310 76 76 242 242 242 242 259 259
 259 259 259 180 180 180 205 205 205 205 205 122 122 329 329 329 310 310 310 310
 310 310 270 76 242 242 242 242 259 259 259 259 259 180 180 180 180 205 205 205
 205 193 132 329 329 329 329 310 310 310 310 270 270 274 274 242 242 242 259 373
 259 259 259 180 180 180 180 191 205 62 62 62 132 329 329 329 329 310 310 310
 270 270 270 274 274 274 274 274 259 373 259 259 180 180 180 180 180 191 62 62
 62 62 120 120 329 329 329 329 310 310 203 203 203 274 274 274 274 274 345 345
 259 185 180 180 180 180 180 180 62 62 62 62 120 120 120 329 329 145 200 200
 203 203 203 274 274 274 274 274 345 185 185 185 185 185 180 180 180 62 62 62
 62 62 62 120 120 145 145 145 145 145 203 203 203 203 274 274 274 274 274 185
 185 185 185 185 245 245 245 62 62 62 62 62 62 120 120 145 145 145 145 145
 203 203 203 203 183 183 183 183 185 185 185 185 185 185 245 245 245 286 62 62
 62 62 62 365 365 145 145 145 145 145 203 203 203 203 183 183 183 341 341 185
 185 185 185 185 245 245 245 286 62 62 62 289 289 246 365 145 145 145 145 145
 382 203 203 203 183 183 183 341 341 341 185 185 185 185 245 245 245 286 286 289
 289 289 289 289 246 17 17 17 145 145 98 98 137 137 137 183 183 341 341 271
 271 271 185 185 245 245 245 176 176 289 289 289 289 289 289 17 17 17 17 17
 98 137 137 137 137 137 229 229 271 271 271 271 271 273 273 273 273 30 30 30
 289 289 289 289 217 217 17 17 17 17 307 137 137 137 137 101 101 101 271 271
 271 271 271 273 273 273 273 30 30 30 30 289 289 289 217 217 217 17 98 98
 307 137 137 137 101 101 101 101 271 271 271 271 273 273 273 273 273 273 30 30
 30 289 289 289 217 217 217 98 98 98 307 307 137 101 101 84 84 84 343 343
 343 343 343 273 273 273 273 273 273 30 30 349 349 349 38 394 394 279 279 279
 279 279 84 84 84 84 84 84 343 343 343 343 177 177 273 273 273 273 196 349
 349 349 349 349 38 394 394 279 279 279 279 129 129 84 84 84 84 343 343 343
 343 343 177 177 177 273 273 196 196 349 349 349 349 349 394 394 394 279 279 279
 129 129 129 129 84 84 84 343 343 343 343 343 177 177 177 273 196 196 141 349
 349 349 349 349 394 394 394 394 279 129 129 129 129 129 129 84 84 343 343 343
 343 343 343 124 124 124 124 124 124 119 119 119 119 119 295 394 394 394 129 129
 129 129 129 129 129 84 84 343 22 22 22 343 142 124 124 124 124 124 312 312
 119 119 119 58 58 58 58 58 129 129 129 129 129 129 129 84 22 22 22 22
 22 22 142 124 124 124 124 124 243 243 119 119 58 58 58 58 58 58 129 129
 129 129 129 129 351 351 351 22 22 22 22 22 22 124 124 124 124 243 243 243
 243 119 58 58 58 58 58 58 71 129 134 134 134 134 351 351 351 22 22 22
 22 22 302 302 302 124 243 243 243 287 287 287 100 100 100 58 58 58 314 129
 134 134 134 134 351 351 351 22 22 22 22 22 302 302 302 302 243 243 243 287
 287 287 287 100 100 100 314 314 314 314 134 134 134 134 351 351 351 22 22 22
 22 173 173 302 302 302 34 34 34 287 287 287 287 100 100 385 21 314 314 314
 76 76 134 114 114 114 114 376 376 376 173 173 173 302 302 205 205 34 34 34
 287 287 387 387 387 385 385 21 314 314 76 76 76 114 114 114 114 376 376 376
 50 50 50 50 205 205 205 205 205 34 287 387 387 387 387 385 385 21 21 76
 76 76 76 76 114 114 114 259 259 259 259 259 5 205 205 205 205 205 205 205
 205 387 387 387 387 385 385 385 310 310 310 76 76 76 76 114 259 259 259 259
 259 259 259 205 205 205 205 205 205 205 205 387 387 387 387 385 385 310 310 310
 310 310 76 76 242 242 259 259 259 259 259 259 259 259 205 205 205 205 205 205
 205 387 387 387 387 310 310 310 310 310 310 310 310 76 242 242 242 259 259 259
 259 259 259 259 205 205 205 205 205 205 205 387 387 329 329 329 310 310 310 310
 310 310 310 310 242 242 242 259 259 259 259 259 259 180 180 180 205 205 205 205
 205 387 387 329 329 329 310 310 310 310 310 310 310 274 274 242 242 259 259 259
 259 259 259 180 180 180 180 205 205 205 62 62 132 329 329 329 329 310 310 310
 310 310 270 274 274 274 274 274 259 259 259 259 213 180 180 180 180 180 62 62
 62 62 120 120 329 329 329 310 310 310 310 203 203 274 274 274 274 274 259 259
 213 213 213 180 180 180 180 180 62 62 62 62 120 120 120 329 145 145 310 310
 203 203 203 274 274 274 274 274 274 185 185 185 185 185 180 180 180 62 62 62
 62 62 62 365 365 145 145 145 145 145 203 203 203 203 274 274 274 274 274 185
 185 185 185 185 245 245 245 62 62 62 62 62 62 365 365 145 145 145 145 145
 382 382 382 382 382 183 281 341 341 341 185 185 185 185 251 245 251 210 62 62
 62 365 365 365 365 365 145 145 145 145 382 382 382 382 382 183 341 341 341 341
 185 185 185 185 245 245 245 286 62 62 289 289 365 365 365 365 145 145 145 145
 382 382 382 382 382 183 341 341 341 341 341 326 326 251 251 245 251 286 289 289
 289 289 289 289 365 17 17 17 17 17 382 382 382 382 137 183 341 341 341 341
 341 393 326 393 251 245 251 176 289 289 289 289 289 289 289 17 17 17 17 17
 307 137 137 137 137 101 341 341 341 341 393 393 393 393 273 273 273 30 30 30
 289 289 289 289 289 17 17 17 17 17 307 307 137 101 101 101 101 101 101 271
 393 393 393 393 273 273 273 30 30 30 30 289 289 289 217 17 17 17 17 307
 307 297 297 101 101 101 101 101 101 271 271 393 177 273 273 273 273 273 30 30
 30 289 289 289 217 394 17 17 307 307 307 297 297 101 101 101 101 101 343 343
 343 343 177 177 177 273 273 273 30 30 30 349 349 394 394 394 394 394 307 307
 307 297 297 101 101 101 101 101 343 343 343 177 177 177 177 177 340 340 141 141
 141 349 349 394 394 394 394 394 307 307 307 129 129 101 101 101 101 343 343 343
 343 177 177 177 177 177 340 340 141 141 141 349 349 394 394 394 394 394 394 307
 129 129 129 129 149 149 84 343 343 343 343 177 177 177 177 177 340 340 141 141
 349 349 349 394 394 394 394 394 394 129 129 129 129 129 149 149 149 343 343 343
 343 177 177 177 124 124 124 124 141 141 119 119 119 394 394 394 394 394 394 129
 129 129 129 129 129 149 149 22 22 22 22 22 177 124 124 124 124 124 124 141
 119 119 119 394 394 394 394 394 71 71 129 129 129 129 129 149 22 22 22 22
 22 22 22 124 124 124 124 124 243 287 375 375 375 58 58 58 58 71 71 71
 71 134 134 134 134 22 22 22 22 22 22 22 22 124 124 124 124 243 243 287
 287 375 375 58 58 58 58 71 71 71 134 134 134 134 134 351 22 22 22 22
 22 22 22 302 302 124 243 243 243 287 287 287 287 100 100 58 58 71 71 71
 134 134 134 134 134 351 22 22 22 22 22 22 22 302 302 302 243 243 287 287
 287 287 287 387 387 21 21 21 21 21 134 134 134 134 134 376 376 376 376 22
 22 22 22 302 302 302 34 287 287 287 287 287 387 387 387 21 21 21 21 21
 134 134 134 134 114 114 376 376 376 376 5 5 5 5 302 205 205 287 287 287
 287 287 387 387 387 387 21 21 21 21 76 134 76 114 114 114 376 376 376 376
 5 5 5 5 205 205 205 205 205 287 287 387 387 387 387 387 21 21 21 21
 310 310 76 19 114 114 376 376 376 259 259 5 5 5 205 205 205 205 205 205
 387 387 387 387 387 387 21 21 21 310 310 310 310 76 76 114 259 259 259 259
 259 259 259 205 205 205 205 205 205 205 387 387 387 387 387 387 310 310 310 310
 310 310 310 310 226 259 259 259 259 259 259 259 259 248 205 205 205 205 205 205
 205 387 387 387 387 387 310 310 310 310 310 310 310 310 226 242 259 259 259 259
 259 259 259 248 205 205 205 205 205 205 205 387 387 387 387 310 310 310 310 310
 310 310 310 310 226 242 259 259 259 259 259 259 259 248 180 205 205 205 205 205
 205 387 387 135 329 329 310 310 310 310 310 310 310 226 274 242 259 259 259 259
 259 259 259 180 180 180 180 205 205 205 205 135 135 135 329 329 310 310 310 310
 310 310 310 274 274 274 274 259 259 259 213 213 213 213 180 180 180 180 205 62
 62 62 365 365 329 329 329 310 310 310 310 310 203 274 274 274 274 281 259 213
 213 213 213 213 180 180 180 180 62 62 62 62 365 365 365 365 145 145 310 310
 203 203 203 274 274 274 281 281 281 213 213 213 213 213 180 180 210 210 62 62
 62 62 365 365 365 365 145 145 145 145 203 203 203 203 274 281 281 281 281 213
 213 213 185 185 245 210 210 210 62 62 62 365 365 365 365 365 145 145 145 145
 382 382 382 382 382 281 281 281 281 341 364 326 326 251 251 251 251 210 210 62
 62 365 365 365 365 365 365 365 382 382 382 382 382 382 382 382 341 341 341 341
 341 326 326 251 251 251 251 251 210 291 289 365 365 365 365 365 365 17 17 382
 382 382 382 382 382 341 341 341 341 341 341 326 326 251 251 251 251 251 338 289
 289 289 289 388 388 17 17 17 17 17 382 382 382 382 382 341 341 341 341 341
 341 393 326 393 251 251 251 181 181 289 289 289 289 388 388 17 17 17 17 17
 382 382 382 382 101 101 341 341 341 341 393 393 393 393 393 181 181 181 181 30
 289 289 289 388 388 17 17 17 17 17 307 307 307 101 101 101 101 101 341 393
 393 393 393 393 393 181 181 181 181 30 30 289 289 388 388 17 17 17 17 307
 307 297 297 101 101 101 101 101 101 393 393 393 393 393 273 273 181 181 181 30
 30 289 289 388 388 394 17 17 307 307 307 297 297 101 101 101 101 101 101 343
 393 393 177 177 177 177 273 181 141 141 141 349 349 394 394 394 394 394 307 307
 307 307 297 101 101 101 101 101 101 343 343 177 177 177 177 177 340 340 141 141
 141 349 349 394 394 394 394 394 307 307 307 307 307 101 101 101 101 101 101 343
 343 177 177 177 177 177 340 340 141 141 141 349 349 394 394 394 394 394 394 307
 129 129 129 129 149 149 149 101 343 343 343 177 177 177 177 177 340 340 141 141
 141 349 349 394 394 394 394 394 394 129 129 129 129 129 149 149 149 149 22 22
 22 177 177 177 177 124 124 340 141 141 141 375 394 394 394 394 394 394 394 129
 129 129 129 129 129 149 149 22 22 22 22 22 177 124 124 124 124 124 230 230
 375 375 375 394 394 394 394 394 71 71 71 129 129 129 129 149 22 22 22 22
 22 22 22 124 124 124 124 124 230 375 375 375 375 375 394 394 394 394 71 71
 71 134 134 134 134 22 22 22 22 22 22 22 22 124 124 124 124 243 243 287
 375 375 375 375 58 58 58 71 71 71 134 134 134 134 134 22 22 22 22 22
 22 22 22 302 124 124 243 243 287 287 287 287 287 287 387 21 21 21 71 71
 134 134 134 134 134 22 22 22 22 22 22 22 22 379 379 302 243 287 287 287
 287 287 287 387 387 21 21 21 21 21 134 134 134 134 134 376 376 376 376 22
 22 22 22 379 379 379 243 287 287 287 287 287 387 387 387 21 21 21 21 21
 134 134 134 134 134 376 376 376 376 376 5 5 5 5 379 205 205 287 287 287
 287 387 387 387 387 21 21 21 21 21 134 134 19 19 19 376 376 376 376 376
 5 5 5 5 5 205 205 205 287 287 287 387 387 387 387 387 21 21 21 21
 19 19 19 19 19 376 376 376 376 376 5 5 5 5 205 205 205 205 205 205
 387 387 387 387 387 387 21 21 21 21 310 19 19 19 19 226 259 259 259 259
 259 259 248 248 248 205 205 205 205 205 387 387 387 387 387 387 21 21 310 310
 310 310 310 226 226 226 259 259 259 259 259 259 248 248 248 205 205 205 205 205
 387 387 387 387 387 387 310 310 310 310 310 310 310 226 226 226 259 259 259 259
 259 259 248 248 248 248 205 205 205 205 387 387 387 387 387 387 310 310 310 310
 310 310 310 226 226 226 259 259 259 259 259 259 248 248 248 248 205 205 205 205
 387 387 135 135 135 135 310 310 310 310 310 310 226 226 226 226 259 259 259 259
 259 259 248 248 248 248 180 205 205 205 135 135 135 135 135 135 310 310 310 310
 310 222 222 226 226 226 281 259 259 259 213 213 213 168 168 168 210 210 210 319
 319 135 135 135 135 365 365 310 310 310 182 222 222 222 281 281 281 281 281 213
 213 213 213 168 168 210 210 210 210 210 319 365 365 365 365 365 365 365 310 182
 382 382 382 382 281 281 281 281 281 213 213 213 213 168 168 210 210 210 210 210
 365 365 365 365 365 365 365 365 145 382 382 382 382 382 281 281 281 281 281 213
 213 213 213 168 251 210 210 210 210 210 365 365 365 365 365 365 365 365 145 382
 382 382 382 382 382 105 281 281 281 364 364 364 251 251 251 251 251 210 210 291
 291 365 365 365 365 365 365 365 382 382 382 382 382 382 105 105 105 341 341 341
 364 326 326 251 251 251 251 338 338 291 291 365 365 365 365 365 365 17 382 382
 382 382 382 382 382 105 341 341 341 341 326 326 326 251 251 251 251 338 338 291
 291 291 388 388 388 388 17 17 17 382 382 382 382 382 382 105 341 341 341 341
 393 393 326 393 251 251 251 181 181 291 291 289 388 388 388 388 17 17 17 17
 382 382 382 382 101 101 341 341 341 393 393 393 393 393 251 251 181 181 181 181
 289 289 388 388 388 388 17 17 17 17 307 307 297 101 101 101 101 101 341 393
 393 393 393 393 393 181 181 181 181 181 181 388 388 388 388 388 388 17 17 307
 307 307 297 101 101 101 101 101 101 393 393 393 393 393 393 181 181 181 181 181
 30 388 388 388 388 388 388 17 307 307 307 307 297 101 101 101 101 101 101 393
 393 393 393 177 177 177 181 181 181 141 141 141 102 102 102 394 394 394 307 307
 307 307 307 101 101 101 101 101 101 381 381 177 177 177 177 177 340 340 141 141
 141 141 102 102 102 102 394 394 307 307 307 307 307 101 101 101 101 101 381 381
 381 177 177 177 177 177 340 340 141 141 141 349 102 102 102 394 394 394 394 307
 129 129 129 129 166 166 166 101 381 381 381 177 177 177 177 177 340 340 141 141
 141 141 394 394 394 394 394 394 394 307 129 129 129 129 166 166 166 166 22 22
 22 121 121 177 177 177 340 340 141 141 141 375 394 394 394 394 394 394 394 129
 71 129 129 129 166 166 166 22 22 22 22 22 121 121 121 121 124 230 230 230
 375 375 375 375 394 394 394 394 71 71 71 134 134 134 166 166 15 22 22 22
 22 22 22 121 121 124 124 230 230 230 375 375 375 375 394 394 394 394 71 71
 134 134 134 134 134 15 15 15 22 22 22 22 22 22 124 124 124 230 230 230
 375 375 375 375 369 369 369 71 71 71 134 134 134 134 134 15 15 15 22 22
 22 22 22 379 379 124 243 287 287 287 287 287 375 99 99 99 99 21 71 71
 134 134 134 134 134 15 15 15 22 22 22 22 379 379 379 379 243 287 287 287
 287 287 99 99 99 99 99 21 21 21 134 134 134 134 134 15 376 376 376 22
 22 22 379 379 379 379 379 287 287 287 287 287 387 387 99 99 21 21 21 21
 134 134 134 134 134 376 376 376 376 376 376 5 379 379 379 379 287 287 287 287
 287 387 387 387 387 21 21 21 21 21 19 19 19 19 19 276 276 276 376 376
 5 5 5 5 379 205 205 287 287 287 387 387 387 387 387 387 21 21 21 21
 19 19 19 19 19 276 276 276 276 376 5 5 5 5 248 205 205 205 205 387
 387 387 387 387 387 387 21 21 21 21 19 19 19 19 19 226 276 276 220 220
 220 220 248 248 248 205 205 205 205 205 387 387 387 387 387 387 21 21 21 310
 310 19 19 226 226 226 226 259 220 220 220 220 248 248 248 248 205 205 205 205
 387 387 387 387 387 387 387 310 310 310 310 310 226 226 226 226 226 259 259 220
 220 220 248 248 248 248 205 205 205 205 387 387 387 387 387 387 387 310 310 310
 310 310 226 226 226 226 226 259 259 220 220 248 248 248 248 248 248 205 205 205
 135 135 135 135 135 135 310 310 310 310 310 222 226 226 226 226 226 259 259 259
 259 248 248 248 248 248 248 210 210 319 135 135 135 135 135 135 135 310 310 310
 182 222 222 226 226 226 281 281 281 259 213 213 168 168 168 168 210 210 210 319
 319 135 135 135 135 135 135 182 182 182 182 222 222 222 281 281 281 281 281 213
 213 213 168 168 168 210 210 210 210 210 319 365 365 365 365 365 365 365 182 182
 222 222 222 382 281 281 281 281 281 213 213 213 213 168 168 210 210 210 210 210
 365 365 365 365 365 365 365 365 61 182 382 382 382 382 382 281 281 281 281 281
 213 213 213 168 251 210 210 210 210 210 365 365 365 365 365 365 365 365 61 382
 382 382 382 382 105 105 105 364 364 364 364 364 262 251 251 251 251 210 210 291
 291 365 365 365 365 365 365 365 61 382 382 382 382 382 105 105 105 391 364 364
 364 364 262 251 251 251 251 338 338 291 291 291 365 365 365 365 365 365 382 382
 382 382 382 382 105 105 105 364 364 364 364 326 326 251 251 251 251 338 291 291
 291 291 388 388 388 388 388 388 382 382 382 382 382 382 382 105 341 341 341 364
 393 393 393 393 251 251 251 181 291 291 291 291 388 388 388 388 388 17 17 382
 382 382 382 382 382 101 341 341 341 393 393 393 393 393 393 181 181 181 181 181
 291 291 388 388 388 388 388 388 17 17 307 382 382 101 101 101 101 101 393 393
 393 393 393 393 393 181 181 181 181 181 181 388 388 388 388 388 388 44 44 307
 307 307 307 101 101 101 101 101 393 393 393 393 393 393 53 53 181 181 181 325
 325 388 388 388 388 388 388 44 307 307 307 307 307 101 101 101 101 101 381 381
 393 393 393 53 53 53 181 181 181 325 325 141 102 102 102 102 394 394 307 307
 307 307 307 101 101 101 101 101 381 381 381 393 177 53 53 53 340 28 141 141
 141 141 102 102 102 102 394 394 307 307 307 307 42 101 101 166 101 381 381 381
 381 381 177 177 177 177 28 28 141 141 141 362 102 102 102 102 394 394 394 307
 42 42 42 166 166 166 166 381 381 381 381 121 121 121 121 121 121 28 141 141
 141 375 118 118 102 394 394 394 394 307 129 42 129 166 166 166 166 166 381 381
 381 121 121 121 121 121 121 230 230 230 375 375 375 394 394 394 394 394 394 394
 71 129 129 166 166 166 166 166 22 22 22 121 121 121 121 121 121 230 230 230
 375 375 375 375 369 369 394 394 394 71 134 134 134 234 166 15 15 15 22 22
 22 22 121 121 121 121 230 230 230 230 375 375 375 375 369 369 369 369 71 71
 134 134 134 234 234 15 15 15 15 22 22 22 22 121 121 121 230 230 230 230
 375 375 375 375 369 369 369 369 71 71 134 134 134 234 234 15 15 15 15 22
 22 22 22 379 379 379 230 230 230 287 287 375 375 99 99 99 99 99 99 71
 134 134 134 134 234 15 15 15 15 22 22 22 379 379 379 379 379 287 287 287
 287 287 99 99 99 99 99 99 21 21 134 134 134 134 288 288 288 288 288 22
 22 379 379 379 379 379 379 287 287 287 287 287 387 99 99 99 99 21 21 21
 134 134 134 134 288 288 276 276 276 376 376 379 379 379 379 379 287 287 287 287
 287 387 387 387 99 99 21 21 21 21 19 19 19 19 19 276 276 276 276 276
 5 5 379 379 379 316 316 287 287 287 387 387 387 387 387 99 21 21 21 21
 19 19 19 19 19 276 276 276 276 220 220 220 220 379 248 316 316 316 316 387
 387 387 387 387 387 387 21 21 21 21 19 19 19 19 19 308 308 308 220 220
 220 220 220 248 248 248 316 316 316 316 387 387 387 387 387 387 21 21 21 21
 19 19 19 226 226 226 308 308 220 220 220 220 248 248 248 248 316 316 316 316
 387 387 387 387 387 387 387 310 310 83 310 225 226 226 226 226 308 308 220 220
 220 220 248 248 248 248 316 316 316 316 387 387 387 135 135 387 387 83 83 83
 225 225 226 226 226 226 51 51 220 220 220 220 248 248 248 248 248 316 316 319
 319 387 135 135 135 135 135 310 310 83 182 225 226 226 226 51 51 51 220 220
 220 220 248 248 248 248 248 210 319 319 319 319 135 135 135 135 135 135 310 182
 182 222 222 51 51 51 51 281 281 346 213 213 168 168 168 168 210 210 319 319
 319 319 135 135 135 135 135 182 182 182 182 222 222 222 51 51 281 281 281 346
 213 213 168 168 168 96 210 210 210 319 319 319 319 365 365 365 365 61 61 182
 182 222 222 222 281 281 281 281 281 346 213 213 168 168 168 96 210 210 210 210
 319 365 365 365 365 365 365 61 61 61 382 382 382 382 382 281 281 281 364 364
 364 213 168 168 251 96 210 210 210 210 291 365 365 365 365 365 365 365 61 61
 382 382 382 382 382 105 391 391 364 364 364 364 262 262 251 96 96 210 291 291
 291 291 365 365 365 365 365 61 61 61 382 382 382 382 105 105 391 391 364 364
 364 364 262 262 251 251 251 338 291 291 291 291 291 365 388 388 388 61 61 358
 382 382 382 382 382 105 391 391 364 364 364 364 262 262 251 251 251 291 291 291
 291 291 291 388 388 388 388 388 382 382 382 382 382 382 382 105 391 364 364 364
 364 393 393 251 251 251 251 291 291 291 291 291 388 388 388 388 388 388 382 382
 382 382 382 382 382 105 391 364 364 393 393 393 393 393 251 251 181 181 181 291
 291 291 388 388 388 388 388 44 44 44 192 192 382 382 117 117 117 101 393 393
 393 393 393 393 53 181 181 181 181 325 325 325 388 388 388 388 44 44 44 44
 192 192 192 192 117 117 117 101 393 393 393 393 393 53 53 53 181 181 325 325
 325 325 388 388 388 388 44 44 44 307 192 192 192 101 117 117 117 381 381 381
 393 393 53 53 53 53 181 325 325 325 325 325 118 118 118 102 44 44 307 307