# vtk DataFile Version 2.0
Data set from IO Version 6.4.197.9a0dee2
ASCII

DATASET RECTILINEAR_GRID
DIMENSIONS 31 31 31
X_COORDINATES 31 float
-4.700000 4.700000 14.099999 23.500000 32.899998 42.299999 51.699997 61.099995 70.500000 79.900002 89.300003 98.699997 108.099998 117.500000 126.899994 136.300003 145.699997 155.099991 164.500000 173.899994 183.300003 
192.699997 202.099991 211.500000 220.899994 230.299988 239.699997 249.099991 258.499969 267.899963 277.299988 
Y_COORDINATES 31 float
-4.700000 4.700000 14.099999 23.500000 32.899998 42.299999 51.699997 61.099995 70.500000 79.900002 89.300003 98.699997 108.099998 117.500000 126.899994 136.300003 145.699997 155.099991 164.500000 173.899994 183.300003 
192.699997 202.099991 211.500000 220.899994 230.299988 239.699997 249.099991 258.499969 267.899963 277.299988 
Z_COORDINATES 31 float
-4.700000 4.700000 14.099999 23.500000 32.899998 42.299999 51.699997 61.099995 70.500000 79.900002 89.300003 98.699997 108.099998 117.500000 126.899994 136.300003 145.699997 155.099991 164.500000 173.899994 183.300003 
192.699997 202.099991 211.500000 220.899994 230.299988 239.699997 249.099991 258.499969 267.899963 277.299988 
CELL_DATA 27000
SCALARS FeatureIds int 1
LOOKUP_TABLE default
 6 6 6 6 6 281 281 142 142 142 142 142 270 270 270 270 270 104 104 62
 62 62 62 167 167 167 113 113 113 113 6 6 6 6 1 281 281 142 142 142
 142 260 270 270 270 270 104 104 104 104 62 62 200 200 200 167 113 113 113 113
 1 1 1 1 1 1 83 83 260 260 260 260 260 270 104 104 104 104 104 104
 62 200 200 200 200 200 239 239 239 239 1 1 1 1 1 83 83 83 144 260
 260 260 260 154 104 104 104 104 104 104 104 200 200 200 200 200 239 239 239 239
 1 1 1 1 83 83 83 83 144 144 144 144 144 154 154 104 286 192 192 80
 80 200 200 200 200 239 239 239 239 239 1 1 1 1 83 83 83 144 144 144
 144 144 144 144 286 286 286 286 378 80 378 148 200 200 282 239 239 239 239 239
 35 35 1 83 83 83 83 144 144 144 144 144 144 144 286 286 286 286 378 378
 378 378 200 282 282 282 239 239 239 239 35 35 35 83 83 83 144 144 144 144
 144 144 144 135 286 286 286 378 378 378 378 378 59 59 282 282 239 239 206 35
 35 35 35 35 83 96 96 241 144 144 144 144 135 135 135 286 313 313 378 378
 378 341 59 59 59 369 369 206 206 35 35 35 35 35 35 96 96 241 241 144
 144 144 135 135 135 135 313 313 313 378 341 341 341 59 59 369 369 369 206 35
 35 35 35 35 11 96 96 96 96 41 41 41 135 135 135 135 313 313 82 82
 82 341 341 59 59 369 369 369 369 35 35 35 35 11 11 11 96 96 354 41
 41 41 135 135 135 135 82 82 82 82 82 82 341 59 59 369 369 369 35 35
 385 35 35 11 11 11 11 354 354 354 354 354 354 354 135 82 82 82 82 82
 82 82 82 306 306 237 237 237 385 385 385 385 385 11 11 11 351 351 354 354
 354 354 354 354 354 82 82 82 82 82 82 82 306 306 306 237 237 237 237 385
 385 385 256 256 256 256 351 351 354 354 354 366 366 366 33 33 82 82 82 82
 82 297 297 306 306 237 237 237 237 385 385 13 256 256 256 256 351 351 354 354
 366 366 366 366 33 33 377 82 82 82 297 297 297 306 190 190 237 237 237 13
 13 13 359 359 359 359 359 351 354 354 366 366 89 89 33 33 377 377 372 372
 352 352 297 190 190 190 190 13 13 13 13 13 359 359 359 359 359 375 375 375
 375 89 89 33 377 377 377 377 372 372 352 352 352 190 190 190 190 13 13 13
 13 13 359 359 359 359 145 145 375 375 375 375 89 377 377 377 377 16 16 16
 352 352 352 190 190 190 190 13 13 13 13 13 359 359 359 359 145 145 375 375
 375 375 375 377 377 16 16 16 16 16 352 352 352 190 190 190 190 13 13 13
 368 368 303 359 359 145 145 145 375 375 375 54 54 230 230 230 16 16 16 16
 16 352 352 173 173 190 190 368 368 368 368 368 368 368 231 231 145 54 54 54
 54 54 54 230 230 230 16 16 16 16 16 373 373 173 173 173 173 368 368 368
 368 368 368 368 231 231 231 54 54 54 54 54 54 230 230 230 16 16 16 16
 373 373 373 373 173 173 173 368 368 368 368 48 276 276 231 231 231 54 54 54
 54 299 299 130 130 130 16 16 16 373 373 373 373 373 173 173 173 368 368 368
 368 276 276 276 231 231 231 231 54 299 299 299 299 130 130 130 130 118 118 118
 373 373 373 373 173 15 15 15 368 368 234 276 276 276 231 231 231 231 299 299
 299 299 299 130 130 130 130 118 118 118 118 257 257 257 15 15 15 15 162 368
 234 234 276 276 258 258 258 258 42 42 299 299 299 130 130 130 125 118 118 118
 118 257 257 257 15 15 15 15 162 113 234 6 234 234 258 258 258 258 42 42
 42 42 299 130 125 125 125 125 118 118 118 10 10 167 167 167 113 113 113 113
 6 6 6 6 258 258 258 142 142 142 42 42 299 270 270 270 270 125 10 10
 10 10 10 167 167 167 113 113 113 113 6 6 6 6 258 258 258 142 142 142
 142 42 42 270 270 270 270 104 104 62 62 10 10 167 167 167 113 113 113 113
 6 6 6 6 281 281 281 281 142 142 142 142 142 270 270 270 270 104 104 10
 10 10 10 167 167 167 167 113 113 113 6 6 6 1 281 281 281 281 142 142
 260 260 260 270 270 270 104 104 104 104 10 10 200 167 167 167 167 113 113 113
 1 1 1 1 1 281 281 281 260 260 260 260 260 270 104 104 104 192 192 345
 345 345 200 200 200 200 239 239 239 239 1 1 1 1 1 83 83 83 260 260
 260 260 260 154 154 104 104 192 192 192 345 345 200 200 200 239 239 239 239 239
 1 1 1 1 1 83 83 83 144 260 260 260 154 154 154 243 286 192 192 80
 345 345 200 200 200 239 239 239 239 239 239 1 1 1 83 83 83 83 144 144
 144 144 154 154 154 243 286 286 80 80 80 345 200 200 239 239 239 239 239 239
 35 1 1 1 83 83 83 144 144 144 144 144 154 154 154 243 286 286 378 378
 378 378 59 59 59 239 239 239 239 239 35 35 35 35 83 83 83 144 144 144
 144 144 144 135 135 286 286 378 378 378 378 378 59 59 59 59 239 239 239 35
 35 35 35 35 83 241 241 241 241 144 144 144 135 135 135 135 313 313 378 378
 378 341 341 59 59 59 369 369 369 35 35 35 35 35 35 241 241 241 241 144
 144 144 135 135 135 135 313 313 313 378 341 341 341 59 59 369 369 369 369 35
 35 35 35 35 11 11 241 241 241 41 41 41 135 135 135 135 313 313 313 82
 341 341 341 59 59 369 369 369 369 35 35 35 35 11 11 11 11 354 354 41
 41 41 135 135 135 135 313 82 82 82 82 82 341 59 59 369 369 369 35 35
 385 385 35 11 11 11 11 354 354 354 354 354 354 135 135 82 82 82 82 82
 82 82 82 306 306 237 237 237 385 385 385 385 385 11 11 11 354 354 354 354
 354 354 354 47 47 47 82 82 82 82 82 297 297 306 306 237 237 237 385 385
 385 385 385 256 256 256 354 354 354 354 354 354 47 47 47 47 82 82 82 82
 297 297 297 306 306 237 237 237 237 385 385 385 385 256 256 256 354 354 354 354
 354 366 47 47 47 377 377 377 372 372 297 297 297 190 190 190 237 237 237 385
 13 13 359 359 359 359 23 23 354 354 354 366 47 47 377 377 377 377 372 372
 297 352 352 190 190 190 190 190 13 13 13 13 359 359 359 359 23 23 23 375
 375 89 47 377 377 377 377 377 372 372 352 352 352 190 190 190 190 190 13 13
 13 13 303 359 359 359 145 145 72 375 375 375 377 377 377 377 377 16 16 372
 352 352 352 190 190 190 190 13 13 13 303 303 303 303 359 145 145 145 72 375
 375 375 375 377 377 377 16 16 16 16 352 352 352 190 190 190 190 13 13 13
 303 303 303 303 359 72 72 145 54 54 54 54 54 230 230 230 16 16 16 16
 16 352 373 190 190 173 190 368 368 303 368 303 303 303 231 231 72 54 54 54
 54 54 54 230 230 230 16 16 16 16 16 373 373 173 173 173 173 368 368 368
 368 48 48 231 231 231 231 54 54 54 54 54 54 230 230 230 16 16 16 16
 373 373 373 173 173 173 173 368 368 368 368 48 48 231 231 231 231 231 54 54
 54 299 299 230 230 16 16 16 16 373 373 373 373 373 173 173 173 368 368 368
 368 48 276 276 231 231 231 231 54 299 299 299 299 299 130 130 130 16 16 373
 373 373 373 173 173 173 173 15 368 368 234 234 234 234 234 231 231 231 299 299
 299 299 299 299 130 125 125 125 118 118 373 373 373 173 173 15 15 15 234 234
 234 234 234 234 258 258 258 258 299 299 299 299 299 299 125 125 125 125 118 118
 118 257 373 173 173 15 15 15 234 234 234 234 234 234 258 258 258 258 142 142
 299 299 299 299 125 125 125 125 10 10 10 10 10 167 167 167 167 113 113 234
 6 6 6 234 258 258 258 142 142 142 142 142 299 270 270 71 270 125 10 10
 10 10 10 167 167 167 167 113 113 113 6 6 6 6 258 258 258 142 142 142
 142 142 142 270 270 71 270 104 10 10 10 10 10 167 167 167 167 113 113 113
 6 6 6 6 281 281 281 281 142 142 142 142 270 270 270 270 270 104 10 10
 10 10 10 167 167 167 167 84 84 6 6 6 6 6 281 281 281 281 260 260
 260 260 260 270 270 270 104 104 345 345 236 236 236 236 167 167 84 84 84 84
 1 1 1 1 281 281 281 281 260 260 260 260 260 260 270 104 192 192 192 345
 345 236 236 200 200 167 84 84 84 84 1 1 1 1 1 83 83 83 260 260
 260 260 260 154 154 154 192 192 192 345 345 345 236 200 200 239 239 239 239 239
 1 1 1 1 1 83 83 83 260 260 260 260 154 154 154 154 345 345 345 345
 345 345 200 200 200 239 239 239 239 239 239 1 1 1 83 83 83 83 144 144
 260 154 154 154 154 154 286 286 345 80 345 345 345 200 239 239 239 239 239 239
 239 1 1 1 83 83 83 83 144 144 144 154 154 154 154 286 286 286 378 378
 378 378 59 59 59 239 239 239 239 239 35 35 35 1 83 83 83 144 144 144
 144 144 154 154 154 286 286 378 378 378 378 378 59 59 59 59 239 239 239 239
 35 35 35 35 83 83 241 241 241 144 144 144 135 135 135 217 313 313 378 378
 378 341 341 59 59 59 369 369 369 35 35 35 35 35 35 241 241 241 241 144
 144 144 135 135 135 217 313 313 313 378 341 341 341 59 59 59 369 369 369 35
 35 35 35 35 11 11 241 241 241 354 41 41 135 135 135 217 313 313 313 82
 341 341 341 59 59 369 369 369 369 35 35 35 35 11 11 11 11 354 354 354
 354 354 135 135 135 217 313 82 82 82 82 341 341 59 59 369 369 369 385 385
 385 385 385 11 11 11 11 354 354 354 354 354 354 47 47 47 82 82 82 82
 82 82 82 306 237 237 237 237 385 385 385 385 385 11 11 11 354 354 354 354
 354 354 47 47 47 47 308 82 82 82 82 297 297 297 237 237 237 237 385 385
 385 385 385 11 11 11 354 354 354 354 354 354 47 47 47 47 308 308 308 82
 297 297 297 297 237 237 237 237 385 385 385 385 385 256 256 63 354 354 354 354
 354 47 47 47 47 47 308 308 308 372 297 297 297 190 190 190 237 237 385 385
 13 13 49 359 359 23 23 23 23 354 354 47 47 47 47 377 377 308 372 372
 372 352 352 190 190 190 190 190 13 13 13 13 13 359 359 23 23 23 23 23
 375 47 47 47 377 377 377 372 372 372 372 352 352 190 190 190 190 190 13 13
 303 303 303 303 359 72 72 72 72 72 375 375 47 377 377 377 377 16 372 372
 372 352 352 190 190 190 190 190 13 13 303 303 303 303 72 72 72 72 72 72
 375 54 54 377 377 16 16 16 16 372 372 352 352 190 190 190 190 190 13 303
 303 303 303 303 72 72 72 72 72 54 54 54 54 230 230 230 16 16 16 16
 16 352 352 173 173 173 173 303 303 303 303 303 303 303 231 231 72 54 54 54
 54 54 54 230 230 230 16 16 16 16 16 373 373 173 173 173 173 368 368 303
 368 368 48 231 231 231 231 54 54 54 54 54 54 230 230 230 16 16 16 16
 373 373 373 173 173 173 173 368 368 368 368 48 48 231 231 231 231 231 54 54
 54 299 299 299 230 16 16 16 16 16 373 373 373 173 173 173 173 173 368 368
 234 234 234 234 231 231 231 231 54 299 299 299 299 299 130 16 16 16 16 16
 373 373 373 173 173 173 173 173 368 234 234 234 234 234 234 231 231 231 299 299
 299 299 299 299 125 125 125 125 118 118 373 373 373 173 173 173 173 173 234 234
 234 234 234 234 258 258 258 258 299 299 299 299 299 299 125 125 125 125 118 118
 10 373 373 173 173 15 15 15 234 234 234 234 234 234 258 258 258 258 142 299
 299 299 299 299 125 125 125 125 10 10 10 10 10 167 167 167 167 113 234 234
 234 234 234 234 258 258 258 142 142 142 142 142 299 270 270 71 125 125 10 10
 10 10 10 167 167 167 167 113 234 234 6 6 6 6 258 258 258 142 142 142
 142 142 142 270 270 71 270 10 10 10 10 10 10 167 167 167 167 113 113 6
 6 6 6 6 201 281 201 201 201 142 260 260 260 270 270 270 270 104 10 10
 10 56 56 56 167 167 84 84 84 84 95 95 95 95 281 281 281 201 260 260
 260 260 260 260 270 270 345 345 345 345 236 236 236 236 84 84 84 84 84 84
 95 95 1 1 281 281 281 201 260 260 260 260 260 260 154 345 345 345 345 345
 345 236 236 236 84 84 84 84 84 84 1 1 1 1 1 83 83 201 260 260
 260 260 260 154 154 154 345 345 345 345 345 345 236 236 239 239 239 239 239 239
 1 1 1 1 1 83 83 83 260 260 260 260 154 154 154 154 345 345 345 345
 345 345 236 236 239 239 239 239 239 239 239 1 1 1 83 83 83 83 260 260
 260 154 154 154 154 154 345 345 345 345 345 345 345 46 239 239 239 239 239 239
 239 1 1 1 83 83 83 83 144 362 144 154 154 154 154 154 286 345 378 378
 378 345 46 46 46 239 239 239 239 239 79 35 35 1 83 83 83 83 362 362
 362 154 154 154 154 217 217 217 378 378 378 378 46 59 59 59 239 239 239 79
 79 35 35 35 83 83 241 241 241 362 144 144 135 135 217 217 217 217 378 378
 378 341 341 59 59 59 369 79 79 79 79 35 35 35 35 241 241 241 241 362
 144 4 135 135 217 217 217 217 217 378 378 341 341 59 59 59 369 369 79 79
 79 35 158 158 11 11 241 241 241 354 41 4 135 135 217 217 217 217 217 378
 341 341 341 59 59 369 369 79 79 79 158 158 158 158 11 11 11 354 354 354
 354 354 135 135 217 217 217 217 217 82 82 341 341 59 59 369 369 79 79 79
 385 385 158 158 11 11 11 354 354 354 354 354 47 47 47 217 217 217 82 82
 82 82 82 163 247 237 237 385 385 385 385 385 385 11 11 63 354 354 354 354
 354 354 47 47 47 47 308 308 82 82 82 297 297 163 247 237 237 237 385 385
 385 385 385 63 63 63 354 354 354 354 354 47 47 47 47 47 308 308 308 308
 297 297 297 297 247 237 237 237 385 385 385 385 49 63 63 63 23 23 354 354
 354 47 47 47 47 47 308 308 308 372 372 297 297 190 190 190 237 237 385 385
 49 49 49 49 63 23 23 23 23 23 354 47 47 47 47 244 308 308 372 372
 372 372 352 190 190 190 190 190 13 13 49 49 49 49 23 23 23 23 23 376
 376 47 47 47 244 244 244 372 372 372 372 372 352 190 190 190 190 190 13 13
 303 303 303 303 23 23 23 23 23 23 376 47 47 244 244 244 244 300 372 372
 372 372 352 190 190 190 190 190 13 303 303 303 303 303 72 72 72 72 72 72
 54 335 121 244 244 244 300 300 300 372 372 372 352 190 190 190 190 303 303 303
 303 303 303 303 303 72 72 72 72 54 54 54 121 121 230 230 16 300 16 16
 16 372 331 265 173 173 265 303 303 303 303 303 303 303 231 72 72 54 54 54
 54 335 121 121 230 230 16 16 16 16 16 373 265 265 173 173 265 265 303 303
 303 303 303 303 231 231 231 54 54 54 54 335 335 121 230 230 16 16 16 16
 373 373 373 173 173 173 265 265 368 368 234 234 234 234 231 231 231 231 54 54
 54 299 299 121 230 16 16 16 16 16 373 373 373 265 173 173 173 265 368 368
 234 234 234 234 234 231 231 231 54 299 299 299 299 299 125 125 16 16 16 16
 373 373 373 265 173 173 173 265 368 234 234 234 234 234 234 234 231 370 370 299
 299 299 299 299 125 125 125 125 125 118 373 373 373 265 173 173 173 265 234 234
 234 234 234 234 234 258 258 258 299 299 299 299 299 299 125 125 125 125 125 10
 10 10 10 265 173 173 173 234 234 234 234 234 234 234 234 258 258 201 201 142
 299 299 299 299 125 125 125 125 10 10 10 10 10 56 167 167 167 234 234 234
 234 234 234 234 234 201 201 201 201 142 142 142 299 270 270 71 125 112 10 10
 10 56 56 56 167 167 167 234 234 234 234 234 234 234 201 201 201 201 201 142
 142 142 142 270 270 71 112 112 10 10 10 56 56 56 167 167 167 113 234 234
 95 95 95 95 201 201 201 201 201 201 260 260 107 107 270 288 288 288 112 112
 10 56 56 56 167 167 84 84 84 95 95 95 95 95 201 201 201 201 201 260
 260 260 107 107 107 288 288 288 345 345 236 236 236 236 84 84 84 84 84 95
 95 95 95 95 201 201 201 201 260 260 260 107 107 107 107 345 345 345 345 345
 345 236 236 236 236 84 84 84 84 95 95 95 95 95 201 201 201 201 260 260
 260 107 107 107 154 154 345 345 345 345 345 345 236 236 236 239 161 161 161 95
 95 1 1 1 1 83 302 302 302 260 107 107 107 154 154 154 345 345 345 345
 345 345 46 46 46 239 239 161 239 239 315 1 1 1 83 83 302 302 302 362
 107 107 154 154 154 154 345 345 345 345 345 46 46 46 46 239 239 239 239 239
 79 79 1 1 83 83 302 302 362 362 362 154 154 154 154 154 345 345 345 345
 345 46 46 46 46 46 239 239 239 79 79 79 79 79 83 83 302 362 362 362
 362 4 154 154 154 217 217 217 217 378 46 46 46 46 46 46 79 79 79 79
 79 79 79 79 83 333 333 362 362 362 362 4 4 4 217 217 217 217 217 378
 378 46 46 46 46 46 79 79 79 79 79 79 158 158 158 333 333 241 362 362
 4 4 4 217 217 217 217 217 217 217 378 46 46 46 46 46 79 79 79 79
 79 158 158 158 158 333 333 333 301 362 4 4 4 217 217 217 217 217 217 217
 341 46 46 46 46 46 79 79 79 79 158 158 158 158 158 333 333 333 354 354
 354 4 4 217 217 217 217 217 217 217 217 46 46 46 163 79 79 79 79 79
 158 158 158 158 158 63 63 354 354 354 354 354 47 47 217 217 217 217 217 217
 217 163 163 163 247 247 122 122 122 122 122 158 158 158 63 63 63 354 354 354
 354 47 47 47 47 47 217 308 308 308 372 163 163 163 247 247 247 122 122 122
 385 385 158 63 63 63 63 63 354 354 354 47 47 47 47 47 308 308 308 308
 372 297 163 247 247 247 247 122 122 122 49 49 49 63 63 63 63 63 354 354
 354 47 47 47 47 244 308 308 308 372 372 297 21 247 247 247 247 247 385 385
 49 49 49 49 63 63 23 23 376 376 376 47 47 47 244 244 244 308 372 372
 372 21 21 66 66 66 66 66 66 49 49 49 49 49 63 23 23 23 376 376
 376 376 47 244 244 244 244 244 372 372 372 21 21 66 66 66 66 66 13 49
 49 49 49 49 49 23 23 23 23 376 376 376 244 244 244 244 244 244 372 372
 372 21 21 66 66 66 66 66 13 49 303 303 303 49 49 310 23 23 149 149
 149 335 121 121 244 244 244 137 300 372 372 372 21 331 66 66 66 66 303 303
 303 303 303 303 53 53 72 72 149 149 335 335 121 121 121 244 16 16 16 16
 372 372 331 331 265 265 265 265 303 303 303 303 303 303 53 53 53 53 54 335
 335 335 121 121 121 121 16 16 16 16 291 331 331 331 265 265 265 265 265 303
 152 152 152 152 152 53 53 53 54 335 335 335 121 121 121 197 197 16 16 16
 291 373 265 265 265 265 265 265 265 368 152 152 152 152 152 53 53 53 53 335
 335 335 121 121 121 197 197 197 16 16 373 373 265 265 265 265 265 265 265 368
 234 234 234 234 234 234 53 370 370 370 370 299 299 121 193 193 197 197 197 197
 373 373 265 265 265 265 265 265 265 234 234 234 234 234 234 234 234 370 370 370
 370 299 299 299 193 125 125 197 197 197 373 373 265 265 265 265 265 265 234 234
 234 234 234 234 234 234 201 201 370 370 370 299 299 299 193 125 125 125 112 112
 10 10 265 265 265 265 265 265 234 234 234 234 234 234 234 201 201 201 201 370
 370 299 299 299 125 125 112 112 112 112 10 10 10 56 265 265 265 234 234 234
 234 234 234 234 201 201 201 201 201 201 142 296 296 296 270 112 112 112 112 112
 10 56 56 56 56 167 167 234 234 234 234 234 234 234 201 201 201 201 201 201
 142 296 296 296 270 112 112 112 112 112 10 56 56 56 167 167 167 113 234 234
 95 95 95 95 201 201 201 201 201 201 296 296 296 296 296 288 288 288 112 112
 112 56 56 56 161 161 161 161 161 95 95 95 95 95 201 201 201 201 201 201
 107 107 107 107 107 288 288 288 288 345 345 236 236 236 161 161 161 161 161 95
 95 95 95 95 201 201 201 201 201 107 107 107 107 107 107 288 288 288 345 345
 345 236 236 236 161 161 161 161 161 95 95 95 95 95 201 201 201 201 201 107
 107 107 107 107 154 345 345 345 345 345 345 345 345 46 161 161 161 161 161 95
 315 315 315 1 1 201 302 302 302 107 107 107 107 154 154 154 345 345 345 345
 345 345 46 46 46 161 161 161 161 219 315 315 315 315 315 302 302 302 302 362
 107 107 154 154 154 154 345 345 345 345 345 46 46 46 46 46 161 161 219 79
 315 315 315 315 83 302 302 302 362 362 362 154 154 154 154 217 217 345 345 345
 46 46 46 46 46 46 46 79 79 79 79 79 79 79 83 302 302 362 362 362
 362 4 4 4 217 217 217 217 217 217 46 46 46 46 46 46 46 79 79 79
 79 79 79 79 333 333 333 362 362 362 362 4 4 4 217 217 217 217 217 217
 46 46 46 46 46 46 79 79 79 79 79 79 158 158 333 333 333 333 362 4
 4 4 4 4 217 217 217 217 217 217 353 353 46 46 46 46 79 79 79 79
 79 158 158 158 333 333 333 333 301 78 4 4 4 217 217 217 217 217 217 217
 353 353 46 46 46 46 79 79 79 79 158 158 158 158 158 333 333 333 301 78
 78 78 4 217 217 217 217 217 217 217 217 163 163 46 163 163 79 79 79 79
 158 158 158 158 158 333 333 78 78 78 78 78 69 69 217 217 217 217 217 103
 163 163 163 163 247 247 122 122 122 122 122 158 158 158 63 63 63 63 78 78
 78 47 47 69 69 69 103 103 103 103 163 163 163 163 247 247 247 122 122 122
 122 122 158 63 63 63 63 63 354 354 354 47 47 47 69 244 244 103 103 103
 372 163 163 247 247 247 247 247 122 122 49 49 49 63 63 63 63 63 376 376
 376 47 47 47 244 244 244 244 372 372 372 21 247 247 247 247 247 247 122 122
 49 49 49 49 63 63 63 376 376 376 376 47 47 244 244 244 244 244 372 372
 21 21 21 247 66 66 66 66 122 49 49 49 49 49 63 63 23 23 376 376
 376 376 244 244 244 244 244 244 372 372 21 21 21 66 66 66 66 66 66 49
 49 49 49 49 310 310 310 23 376 376 376 376 244 244 244 244 244 137 372 372
 372 21 21 66 66 66 66 66 66 49 49 49 49 49 310 310 310 53 149 149
 149 335 335 121 244 244 244 137 137 372 372 372 21 66 66 66 66 66 9 303
 303 303 303 303 53 53 53 53 149 149 335 335 121 121 121 244 137 137 137 372
 291 291 331 331 331 265 265 265 265 303 152 152 152 152 53 53 53 53 53 335
 335 335 121 121 121 121 197 197 197 291 291 291 331 331 331 265 265 265 265 303
 152 152 152 152 152 53 53 53 53 335 335 335 335 121 121 197 197 197 197 197
 291 291 331 331 265 265 265 265 265 152 152 152 152 152 152 53 53 53 53 335
 335 335 335 121 121 197 197 197 197 197 291 291 265 265 265 265 265 265 265 152
 152 152 234 234 234 53 53 53 370 370 370 335 335 193 193 193 197 197 197 197
 291 291 265 265 265 265 265 265 265 234 234 234 234 234 234 234 201 370 370 370
 370 370 193 193 193 193 193 197 197 197 291 291 265 265 265 265 265 265 265 234
 234 234 234 234 234 201 201 201 370 370 370 370 299 193 193 193 193 112 112 112
 112 10 265 265 265 265 265 265 234 234 234 234 234 234 201 201 201 201 201 201
 370 296 296 193 193 193 112 112 112 112 112 10 56 56 265 265 265 265 234 234
 234 234 234 234 201 201 201 201 201 201 296 296 296 296 193 112 112 112 112 112
 112 56 56 56 56 167 265 93 93 234 95 95 95 201 201 201 201 201 201 201
 296 296 296 296 296 112 112 112 112 112 112 56 56 56 167 167 93 93 93 95
 95 95 95 201 201 201 201 201 201 201 296 296 296 296 296 112 112 112 112 112
 112 328 328 189 189 161 161 161 93 93 95 95 95 95 201 201 201 201 201 201
 296 296 107 107 107 288 288 288 288 112 112 236 68 189 161 161 161 161 161 95
 95 95 95 95 201 201 201 201 201 107 107 107 107 107 107 288 288 288 288 345
 345 236 189 68 161 161 161 161 161 157 95 95 95 224 224 201 201 201 201 107
 107 107 107 107 107 345 345 345 345 345 345 345 46 46 161 161 161 161 161 157
 315 315 315 315 224 201 302 302 302 107 107 107 107 107 154 154 345 345 345 345
 345 46 46 46 46 161 161 161 219 219 315 315 315 315 315 302 302 302 302 362
 107 107 107 107 154 154 217 345 345 345 46 46 46 46 46 46 161 161 219 219
 315 315 315 315 315 302 302 302 362 362 362 4 4 4 154 217 217 217 343 343
 46 46 46 46 46 46 46 219 219 219 79 315 315 315 315 302 302 362 362 362
 362 4 4 4 217 217 217 217 343 343 46 46 46 46 46 46 46 79 79 79
 79 79 79 79 333 333 333 333 362 362 4 4 4 4 217 217 217 217 217 343
 353 353 46 46 46 46 46 79 79 79 79 79 158 158 333 333 333 333 78 78
 4 4 4 4 217 217 217 217 217 217 353 353 353 46 46 46 46 79 79 79
 79 158 158 158 333 333 333 333 301 78 78 4 4 4 217 217 217 217 217 217
 353 353 46 46 46 46 79 79 79 79 158 158 158 158 333 333 333 333 301 78
 78 78 4 4 217 217 217 186 186 186 163 163 163 163 163 163 79 79 79 79
 158 158 158 158 158 333 333 78 78 78 78 78 69 69 69 69 103 103 103 103
 163 163 163 163 163 247 247 122 122 122 122 158 158 158 63 63 63 78 78 78
 78 78 69 69 69 69 103 103 103 103 163 163 163 163 247 247 247 247 122 122
 122 122 158 63 63 63 63 63 78 78 78 69 69 69 69 69 103 103 103 103
 163 163 163 163 247 247 247 247 122 122 49 49 49 63 63 63 63 63 63 376
 376 47 69 69 244 244 244 103 103 103 21 163 163 247 247 247 247 247 122 122
 49 49 49 49 63 63 63 376 376 376 376 376 244 244 244 244 244 244 244 372
 21 21 21 247 247 247 247 247 9 49 49 49 49 49 310 310 310 376 376 376
 376 376 244 244 244 244 244 244 244 372 21 21 21 66 66 66 66 66 9 49
 49 49 49 49 310 310 310 310 376 376 376 376 244 244 244 244 244 52 52 372
 21 21 21 66 66 66 66 9 9 9 49 49 49 49 310 310 310 53 149 149
 149 335 335 244 244 244 52 52 52 52 372 21 21 66 66 66 66 9 9 9
 9 9 49 310 310 310 53 53 53 335 335 335 335 121 121 197 52 52 52 52
 291 291 331 331 331 265 265 9 9 9 152 152 152 152 310 53 53 53 53 335
 335 335 335 121 121 197 197 197 197 291 291 291 331 331 265 265 265 265 265 9
 152 152 152 152 152 53 53 53 53 335 335 335 335 121 121 197 197 197 197 291
 291 291 291 265 265 265 265 265 265 152 152 152 152 152 152 53 53 53 53 335
 335 335 335 121 121 197 197 197 197 197 291 291 291 265 265 265 265 265 265 152
 152 152 152 152 152 53 53 53 273 273 273 335 335 193 193 193 197 197 197 197
 291 291 291 265 265 265 265 265 265 234 234 234 234 234 234 201 201 273 273 273
 273 273 193 193 193 193 193 197 197 197 291 291 291 265 265 265 265 265 265 234
 234 234 234 234 201 201 201 201 273 273 273 273 193 193 193 193 193 197 197 197
 291 291 291 265 265 265 265 265 265 234 234 234 234 234 201 201 201 201 201 381
 381 296 296 193 193 193 193 112 112 112 112 328 328 328 265 265 265 309 93 234
 234 234 234 201 201 201 201 201 381 381 381 296 296 296 193 193 112 112 112 112
 112 328 328 328 182 182 309 93 93 93 95 95 95 201 201 201 201 201 201 381
 296 296 296 296 296 112 112 112 112 112 112 328 328 328 182 309 93 93 93 93
 95 95 95 201 201 201 201 201 201 201 296 296 296 296 139 139 112 112 112 112
 328 328 328 189 189 309 309 309 93 93 157 95 95 224 201 201 201 201 201 201
 296 296 296 107 139 139 139 288 288 112 328 328 68 189 189 161 161 161 161 157
 157 95 224 224 224 201 201 201 201 201 107 107 107 107 107 139 288 288 288 345
 379 189 189 68 189 161 161 161 161 157 157 315 224 224 224 224 201 201 201 107
 107 107 107 107 107 139 345 345 345 345 345 46 189 68 189 161 161 161 161 157
 315 315 315 224 224 224 302 302 302 107 107 107 107 107 90 90 90 345 345 345
 46 46 46 46 46 161 161 161 219 219 315 315 315 315 224 224 302 302 302 362
 107 107 107 226 90 90 90 343 343 343 46 46 46 46 46 46 46 161 219 219
 315 315 315 315 224 224 302 302 362 362 362 4 4 4 4 90 217 343 343 343
 46 46 46 46 46 46 46 46 219 219 172 315 315 315 143 333 333 333 362 362
 4 4 4 4 4 217 217 343 343 343 46 46 46 46 46 46 46 172 172 172
 79 116 116 116 143 333 333 333 362 4 4 4 4 4 4 217 217 217 343 343
 353 353 46 46 46 46 46 172 79 79 79 116 116 116 333 333 333 333 78 78
 4 4 4 4 4 217 217 217 106 106 353 353 353 46 46 46 46 172 79 79
 79 116 116 116 333 333 333 333 78 78 78 4 4 4 217 217 217 186 186 186
 353 353 353 46 46 46 46 172 79 79 158 158 158 158 333 333 333 333 78 78
 78 78 4 69 69 217 186 186 186 186 163 163 163 163 163 163 163 172 172 172
 158 158 158 158 158 333 333 78 78 78 78 78 69 69 69 69 103 103 103 103
 163 163 163 163 163 163 163 384 122 122 122 158 158 158 63 63 333 78 78 78
 78 69 69 69 69 69 103 103 103 103 163 163 163 163 163 247 247 247 122 122
 122 49 49 63 63 63 63 78 78 78 78 69 69 69 69 69 103 103 103 103
 163 163 163 163 247 247 247 247 122 122 49 49 49 63 63 63 63 63 78 78
 86 69 69 69 69 69 103 103 103 103 163 163 163 163 247 247 247 247 9 122
 49 49 49 49 63 63 63 310 376 376 376 86 69 244 244 244 244 244 103 103
 196 196 196 247 247 247 247 247 9 9 49 49 49 49 310 310 310 310 376 376
 376 376 244 244 244 244 244 244 244 372 196 196 196 247 247 247 247 9 9 9
 9 49 49 49 310 310 310 310 376 376 376 335 244 244 244 244 52 52 52 52
 21 21 21 66 66 66 9 9 9 9 9 9 49 310 310 310 310 53 53 53
 335 335 335 244 244 52 52 52 52 52 52 291 291 66 383 66 9 9 9 9
 9 9 49 310 310 310 53 53 53 53 335 335 335 28 28 197 52 52 52 52
 291 291 291 291 383 383 9 9 9 9 180 180 152 152 310 53 53 53 53 53
 335 335 335 28 28 197 197 197 197 291 291 291 291 291 265 265 265 265 9 9
 180 152 152 152 53 53 53 53 53 53 335 335 335 28 28 197 197 197 197 291
 291 291 291 291 265 265 265 265 265 180 180 152 152 152 129 53 53 53 53 273
 335 335 335 193 193 197 197 197 197 197 291 291 291 291 265 265 265 265 265 180
 180 152 152 152 129 129 53 53 273 273 273 34 335 193 193 193 197 197 197 197
 291 291 291 291 265 265 265 265 265 180 159 159 159 159 127 127 53 53 273 273
 273 34 34 193 193 193 193 197 197 197 291 291 291 265 265 265 265 265 265 159
 159 159 159 159 127 127 201 201 273 273 273 34 34 193 193 193 193 197 197 197
 197 291 291 265 182 182 265 265 309 159 234 159 234 234 201 127 201 201 381 381
 381 296 296 193 193 193 193 112 112 112 328 328 328 328 182 182 309 309 309 309
 93 234 234 201 201 201 201 201 381 381 381 296 296 296 193 193 112 112 112 112
 328 328 328 328 182 182 309 309 93 93 93 95 95 201 201 201 201 201 201 381
 296 296 296 296 296 112 112 112 112 112 328 328 328 328 182 309 309 309 93 93
 97 38 224 224 201 201 201 201 201 81 296 296 296 296 139 139 139 112 379 379
 328 328 328 189 189 309 309 309 309 97 97 224 224 224 224 201 201 201 201 201
 296 296 296 139 139 139 139 139 379 379 379 189 68 189 189 189 309 309 97 97
 157 224 224 224 224 224 201 201 201 201 107 107 107 107 139 139 139 139 379 379
 379 189 189 68 189 189 161 161 97 157 157 224 224 224 224 224 201 201 201 107
 107 107 107 107 139 139 139 139 379 379 379 189 189 189 189 161 161 161 161 157
 315 315 224 224 224 224 224 61 61 61 61 107 226 226 90 90 90 90 343 343
 46 46 46 46 46 46 161 161 219 219 315 315 315 224 224 224 224 61 61 61
 61 61 226 226 90 90 90 343 343 343 46 46 46 46 46 46 46 219 219 219
 315 315 315 315 224 224 61 61 61 61 61 61 226 226 90 90 90 343 343 343
 46 46 46 46 46 46 46 46 219 219 92 92 92 92 143 143 61 61 61 61
 61 4 4 4 4 90 343 343 343 343 343 46 46 46 46 46 46 172 371 371
 172 116 116 116 143 143 143 61 61 61 4 4 4 4 4 106 106 106 343 343
 353 46 46 46 46 46 46 172 172 172 172 116 116 116 143 143 143 333 78 78
 4 4 4 4 4 106 106 106 106 106 353 353 46 46 46 46 46 172 172 172
 172 116 116 116 143 143 333 333 78 78 78 4 4 4 109 106 106 106 106 106
 353 353 46 46 46 384 384 172 172 172 172 116 116 116 143 333 333 78 78 78
 78 4 4 109 109 109 186 186 186 106 163 163 163 163 163 384 384 384 172 172
 172 158 158 158 311 311 311 78 78 78 78 78 69 69 69 69 103 103 103 103
 163 163 163 163 163 163 384 384 384 172 122 147 147 147 311 311 311 311 78 78
 78 69 69 69 69 69 103 103 103 103 163 163 163 163 163 163 163 384 122 122
 147 147 147 147 311 311 311 311 78 86 86 86 69 69 69 69 103 103 103 103
 163 163 163 163 163 247 247 247 9 122 147 147 147 147 63 311 311 311 86 86
 86 86 69 69 69 69 103 103 103 103 196 196 196 163 247 247 247 247 9 9
 9 147 147 49 310 63 311 102 102 102 86 86 86 69 69 216 216 244 103 196
 196 196 196 196 247 247 247 9 9 9 9 9 49 49 310 310 310 310 102 102
 102 86 86 216 216 185 185 67 67 382 196 196 196 196 247 247 9 9 9 9