# vtk DataFile Version 2.0
Data set from ImportExport Version 6.5.141.ec284b7a5
ASCII

DATASET RECTILINEAR_GRID
DIMENSIONS 26 26 26
X_COORDINATES 26 float
-3.000000 3.000000 9.000000 15.000000 21.000000 27.000000 33.000000 39.000000 45.000000 51.000000 57.000000 63.000000 69.000000 75.000000 81.000000 87.000000 93.000000 99.000000 105.000000 111.000000 117.000000 
123.000000 129.000000 135.000000 141.000000 147.000000 
Y_COORDINATES 26 float
-3.000000 3.000000 9.000000 15.000000 21.000000 27.000000 33.000000 39.000000 45.000000 51.000000 57.000000 63.000000 69.000000 75.000000 81.000000 87.000000 93.000000 99.000000 105.000000 111.000000 117.000000 
123.000000 129.000000 135.000000 141.000000 147.000000 
Z_COORDINATES 26 float
-3.000000 3.000000 9.000000 15.000000 21.000000 27.000000 33.000000 39.000000 45.000000 51.000000 57.000000 63.000000 69.000000 75.000000 81.000000 87.000000 93.000000 99.000000 105.000000 111.000000 117.000000 
123.000000 129.000000 135.000000 141.000000 147.000000 
CELL_DATA 15625
SCALARS FeatureIds int 1
LOOKUP_TABLE default
 2 2 2 2 2 2 56 51 51 51 51 51 51 51 51 51 68 68 68 68
 68 2 2 2 2 2 2 2 2 2 56 56 56 51 51 51 51 51 51 51
 51 68 68 68 68 68 2 2 2 2 2 2 2 2 56 56 56 56 33 33
 33 51 51 51 51 51 68 68 68 68 68 2 2 2 2 2 2 2 2 56
 56 56 33 33 33 33 51 51 51 51 68 68 68 68 68 69 69 2 2 2
 2 2 2 56 56 56 56 72 33 33 33 33 51 51 51 68 68 68 68 69
 69 69 69 69 2 2 2 2 56 56 56 72 72 72 72 72 72 72 72 72
 68 68 69 69 69 69 69 69 69 69 69 69 2 56 56 72 72 72 72 72
 72 72 72 72 72 68 69 69 69 69 69 69 69 69 69 69 69 69 56 72
 72 72 72 72 72 72 72 72 72 72 72 69 69 23 69 69 69 69 69 69
 69 69 77 77 72 72 72 72 72 72 72 72 72 72 72 72 23 23 23 23
 69 69 69 69 69 77 77 77 77 92 72 72 72 72 72 72 72 72 72 72
 72 23 23 23 23 69 69 69 69 69 77 77 77 77 77 92 72 72 72 72
 72 72 72 72 72 72 23 23 23 69 69 69 69 69 69 26 77 77 77 77
 77 72 72 72 72 72 72 72 72 72 55 55 23 23 69 69 69 69 69 79
 27 27 77 77 77 77 77 72 72 72 72 72 72 55 55 55 55 55 55 69
 79 79 79 79 79 27 27 27 27 77 77 77 72 72 72 72 67 55 55 55
 55 55 55 55 55 79 79 79 79 79 27 27 27 27 27 27 27 25 72 72
 72 67 55 55 55 55 55 55 55 55 79 79 79 79 79 27 27 27 27 27
 27 25 25 25 25 25 55 55 55 55 55 55 55 55 55 79 79 79 79 79
 27 27 27 27 27 27 25 25 25 25 78 78 62 62 55 55 55 55 55 82
 82 82 79 79 79 27 27 27 27 27 25 25 25 25 78 78 78 62 62 62
 55 55 55 55 82 82 82 82 79 27 27 27 27 27 27 25 25 25 25 78
 78 78 78 62 83 83 83 55 20 82 82 82 82 93 93 93 27 27 27 27
 25 25 78 78 78 78 78 78 78 83 83 83 20 20 20 20 93 93 93 93
 93 93 27 27 78 78 78 78 78 78 78 78 78 78 78 83 83 20 20 20
 20 20 93 93 93 93 93 2 2 78 78 78 78 78 78 78 78 78 78 78
 78 78 20 20 20 20 20 93 93 93 2 2 2 2 2 78 78 78 78 78
 78 78 78 78 78 78 78 20 20 20 20 20 93 93 93 2 2 2 2 2
 78 78 78 78 78 78 78 78 78 78 78 78 21 20 20 20 20 2 2 2
 2 2 2 2 2 2 78 78 70 78 78 78 78 78 78 78 78 21 20 20
 20 20 2 2 2 2 2 2 2 2 2 16 16 16 16 51 51 51 51 78
 68 68 68 68 68 68 2 2 2 2 2 2 2 2 2 56 56 56 33 33
 33 51 51 51 51 68 68 68 68 68 68 68 2 2 2 2 2 2 2 56
 56 56 56 33 33 33 51 51 51 68 68 68 68 68 68 68 68 2 2 2
 2 2 2 2 56 56 56 33 33 33 33 33 51 51 68 68 68 68 68 68
 68 69 2 2 2 2 2 2 56 56 56 56 72 33 33 33 72 72 51 68
 68 68 68 68 68 69 69 69 69 2 2 2 2 56 56 56 72 72 72 33
 72 72 72 72 68 68 68 68 68 69 69 69 69 69 69 2 2 2 56 56
 72 72 72 72 72 72 72 72 72 72 68 68 68 69 69 69 69 69 69 69
 69 69 77 56 72 72 72 72 72 72 72 72 72 72 72 68 68 23 23 69
 69 69 69 69 69 69 77 77 77 72 72 72 72 72 72 72 72 72 72 72
 72 23 23 23 23 69 69 69 69 69 77 77 77 77 77 72 72 72 72 72
 72 72 72 72 72 72 23 23 23 23 69 69 69 69 69 77 77 77 77 77
 77 72 72 72 72 72 72 67 67 67 87 23 23 23 69 69 69 69 69 69
 26 77 77 77 77 77 72 72 72 72 67 67 67 67 67 67 55 23 15 15
 69 69 69 79 79 27 27 77 77 77 77 77 72 72 72 67 67 67 67 55
 55 55 55 55 15 79 79 79 79 79 27 27 27 27 77 77 77 72 72 72
 67 67 67 55 55 55 55 55 55 55 79 79 79 79 79 27 27 27 27 27
 27 25 25 25 72 67 67 55 55 55 55 55 55 55 55 79 79 79 79 79
 27 27 27 27 27 27 25 25 25 25 88 88 55 55 55 55 55 55 55 82
 82 79 79 79 79 27 27 27 27 27 25 25 25 25 25 78 62 62 62 55
 55 55 55 55 82 82 82 79 79 79 27 27 27 27 27 25 25 25 25 78
 78 78 62 62 62 55 55 55 55 82 82 82 82 79 27 27 27 27 27 27
 25 25 25 25 78 78 78 78 62 83 83 83 83 82 82 82 82 82 79 27
 93 27 27 27 27 25 25 25 78 78 78 78 78 78 83 83 83 83 20 20
 20 82 82 93 93 93 93 27 27 78 78 78 78 78 78 78 78 78 78 78
 83 83 20 20 20 20 20 93 93 93 93 2 2 2 78 78 78 78 78 78
 78 78 78 78 78 78 78 20 20 20 20 20 93 93 93 2 2 2 2 2
 78 78 78 78 78 78 78 78 78 78 78 78 20 20 20 20 20 20 2 2
 2 2 2 2 2 16 16 16 16 78 78 78 78 78 78 78 78 20 20 20
 20 20 20 2 2 2 2 2 2 2 2 16 16 16 16 78 78 78 78 78
 78 78 21 20 20 20 20 2 2 2 2 2 2 2 2 2 16 16 16 16
 16 78 78 78 68 68 68 68 68 68 68 68 2 2 2 2 2 2 2 2
 56 56 56 33 33 33 51 51 51 68 68 68 68 68 68 68 68 2 2 2
 2 2 2 2 56 56 56 33 33 33 33 33 51 68 68 68 68 68 68 68
 68 68 2 2 2 2 2 2 2 56 56 56 33 33 33 33 33 51 68 68
 68 68 68 68 68 68 68 2 2 2 2 2 2 56 56 56 56 72 33 33
 72 72 72 68 68 68 68 68 68 68 68 69 69 2 2 2 2 2 56 56
 56 72 72 72 72 72 72 72 72 68 68 68 68 68 68 68 69 69 2 2
 2 2 2 56 56 72 72 72 72 72 72 72 72 72 68 68 68 68 68 68
 69 69 69 69 69 69 69 77 72 72 72 72 72 72 72 72 72 72 72 72
 68 68 68 23 69 69 69 69 69 69 69 77 77 77 72 72 72 72 72 72
 72 72 72 72 72 68 23 23 23 23 69 69 69 69 69 41 77 77 77 77
 72 72 72 72 72 72 72 72 72 72 87 23 23 23 23 69 69 69 69 69
 41 41 77 77 77 77 72 72 72 72 67 67 67 67 67 87 87 23 23 15
 69 69 69 69 27 41 41 77 77 77 77 72 72 72 67 67 67 67 67 67
 87 87 87 15 15 15 69 69 79 27 27 27 77 77 77 77 77 72 72 67
 67 67 67 67 67 55 55 55 15 15 15 79 79 79 27 27 27 27 27 27
 77 77 76 76 67 67 67 67 55 55 55 55 55 55 15 79 79 79 79 79
 27 27 27 27 27 27 76 76 76 76 88 88 88 55 55 55 55 55 55 55
 79 79 79 79 79 27 27 27 27 27 27 25 25 76 76 88 88 88 55 55
 55 55 55 55 55 82 79 79 79 79 27 27 27 27 27 27 25 25 25 76
 88 88 88 62 55 55 55 55 55 82 82 82 79 79 79 27 27 27 27 27
 25 25 25 25 78 78 78 62 62 62 55 55 55 55 82 82 82 82 79 27
 27 27 27 27 27 25 25 25 25 78 78 78 78 62 83 83 83 55 20 82
 82 82 82 79 27 27 27 27 27 27 25 25 78 78 78 78 78 78 78 83
 83 83 83 20 20 20 82 82 79 27 93 27 27 27 78 78 78 78 78 78
 78 78 78 78 78 83 83 20 20 20 20 20 20 93 93 8 8 8 2 78
 78 78 78 78 78 78 78 78 78 78 78 78 20 20 20 20 20 20 93 93
 8 8 8 2 2 16 16 16 16 16 78 78 78 78 78 78 78 20 20 20
 20 20 20 2 2 8 8 2 2 2 16 16 16 16 16 16 78 78 78 78
 78 78 20 20 20 20 20 20 2 2 2 2 2 2 2 2 16 16 16 16
 16 78 78 78 78 78 78 68 20 20 20 20 2 2 2 2 2 2 2 2
 2 16 16 16 16 16 16 78 78 68 68 68 68 43 43 43 43 2 2 2
 2 2 2 2 2 56 56 56 16 16 16 16 51 68 68 68 68 68 68 68
 68 68 2 2 2 2 2 2 2 12 56 56 33 33 33 33 33 51 68 68
 68 68 68 68 68 68 68 68 2 2 2 2 2 12 12 56 56 33 33 33
 72 72 72 68 68 68 68 68 68 68 68 68 2 2 2 2 2 2 12 12
 56 56 72 72 72 72 72 72 68 68 68 68 68 68 68 68 68 9 9 9
 2 2 12 12 12 12 72 72 72 72 72 72 72 68 68 68 68 68 68 68
 68 68 9 9 9 2 2 12 12 12 72 72 72 72 72 72 72 72 72 68
 68 68 68 68 68 68 68 9 9 9 69 2 12 12 72 72 72 72 72 72
 72 72 72 72 68 68 68 68 68 68 68 69 69 69 69 41 41 77 77 72
 72 72 72 72 72 72 72 72 72 72 68 68 68 23 23 69 69 69 69 69
 41 41 77 77 77 72 72 72 72 72 72 67 67 67 87 87 87 87 23 23
 69 69 69 69 69 41 41 41 77 77 77 72 72 72 67 67 67 67 67 87
 87 87 87 15 15 15 69 69 69 27 41 41 41 77 77 77 72 72 72 67
 67 67 67 67 87 87 87 87 15 15 15 15 79 79 27 41 41 41 77 77
 77 77 72 72 67 67 67 67 67 87 87 87 87 15 15 15 79 79 79 27
 27 27 27 27 27 27 77 76 76 76 67 67 67 67 55 55 55 55 15 15
 15 79 79 79 27 27 27 27 27 27 27 76 76 76 76 88 88 88 55 55
 55 55 55 55 15 79 79 79 79 79 27 27 27 27 27 27 76 76 76 76
 88 88 88 55 55 55 55 55 55 55 82 79 79 79 79 27 27 27 27 27
 27 25 76 76 76 88 88 88 55 55 55 55 55 55 82 82 79 79 79 79
 27 27 27 27 27 27 25 25 76 76 78 88 78 62 55 55 55 55 55 82
 82 82 79 79 27 27 27 27 27 27 25 25 25 78 78 78 78 78 78 78
 83 83 83 19 19 82 82 82 79 27 27 27 27 35 35 35 35 78 78 78
 78 78 78 78 78 83 83 83 20 20 20 82 82 79 27 35 35 35 35 35
 35 35 78 78 78 50 50 78 78 78 78 83 20 20 20 20 20 20 93 93
 8 8 8 35 35 35 78 16 16 78 50 50 50 78 78 78 78 20 20 20
 20 20 20 93 93 8 8 8 8 35 16 16 16 16 16 16 50 78 78 78
 78 78 20 20 20 20 20 20 20 2 8 8 8 2 2 16 16 16 16 16
 16 16 78 78 78 78 78 68 20 20 20 20 20 2 2 2 8 2 2 2
 16 16 16 16 16 16 16 78 78 78 78 68 68 43 43 43 43 2 2 2
 2 2 2 2 12 12 16 16 16 16 16 16 78 68 68 68 68 68 43 43
 43 43 43 2 2 2 2 2 12 12 12 12 16 16 16 16 16 68 68 68
 68 68 68 43 43 43 43 43 2 2 2 2 2 12 12 12 12 12 33 33
 33 33 68 68 68 68 68 68 68 68 68 68 68 2 2 2 2 12 12 12
 12 12 12 72 72 72 72 68 68 68 68 68 68 68 68 68 68 9 9 2
 2 2 12 12 12 12 12 72 72 72 72 72 72 68 68 68 68 68 68 68
 68 68 9 9 9 2 12 12 12 12 12 12 72 72 72 72 72 72 68 68
 68 68 68 68 68 68 68 9 9 9 2 12 12 12 12 12 72 72 72 72
 72 72 72 72 68 68 68 68 68 68 68 68 9 9 9 81 12 12 12 12
 72 72 72 72 72 72 72 72 72 68 68 68 68 68 68 68 68 9 9 9
 41 41 12 12 12 72 72 72 72 72 72 72 72 87 87 87 87 87 68 68
 68 63 63 63 63 41 41 41 77 77 72 72 72 72 72 72 67 67 87 87
 87 87 87 87 87 69 69 63 63 69 41 41 41 77 77 77 72 72 72 67
 67 67 67 67 87 87 87 87 87 15 15 69 63 69 27 41 41 41 77 77
 77 72 72 72 67 67 67 67 67 87 87 87 87 87 15 15 15 34 34 27
 41 41 41 77 77 77 77 72 67 67 67 67 67 67 87 87 87 87 87 15
 15 79 79 79 27 27 27 27 27 27 27 76 76 76 76 76 67 67 87 87
 87 87 87 87 15 15 79 79 79 27 27 27 27 27 27 27 76 76 76 76
 76 88 88 87 87 87 87 87 87 15 79 79 79 79 27 27 27 27 27 27
 27 76 76 76 76 76 88 88 55 55 55 55 55 55 55 82 79 79 79 27
 27 27 27 27 27 27 76 76 76 76 76 88 88 55 55 55 55 55 55 82
 82 79 79 79 27 27 27 27 27 27 60 60 76 76 76 76 88 88 62 55
 55 55 19 19 19 19 82 79 79 27 27 27 27 35 35 35 60 60 78 78
 78 78 78 78 78 83 19 19 19 19 19 82 79 79 27 35 35 35 35 35
 35 35 78 78 78 78 78 78 78 78 78 19 19 19 19 19 19 49 49 27
 35 35 35 35 35 35 35 78 78 78 50 50 50 78 78 78 19 19 19 19
 19 19 49 49 27 35 35 35 35 35 35 35 16 16 16 50 50 50 78 78
 78 78 19 19 19 19 19 19 19 35 8 8 35 35 35 35 16 16 16 16
 16 50 50 78 78 78 78 19 19 19 19 20 20 20 2 8 8 8 35 35
 35 16 16 16 16 16 16 78 78 78 78 68 43 43 43 43 20 20 2 2
 2 8 8 35 35 16 16 16 16 16 16 16 78 78 78 68 68 43 43 43
 43 43 43 2 2 2 2 2 12 12 12 16 16 16 16 16 16 16 68 68
 68 68 43 43 43 43 4 4 4 2 2 12 12 12 12 12 12 12 16 16
 16 16 68 68 68 68 68 68 43 43 43 4 4 4 2 2 12 12 12 12
 12 12 12 12 33 28 28 28 68 68 68 68 68 68 43 43 4 4 4 2
 2 12 12 12 12 12 12 12 72 72 72 28 28 68 68 68 68 68 68 68
 68 68 9 9 9 12 12 12 12 12 12 12 12 72 72 72 72 28 68 68
 68 68 68 68 68 68 68 9 9 9 12 12 12 12 12 12 12 12 72 72
 72 72 28 28 68 68 68 68 68 68 68 68 9 9 9 12 12 12 12 12
 12 12 72 72 72 72 72 28 28 68 68 68 68 68 68 68 68 9 9 9
 81 12 12 12 12 12 72 72 72 72 72 72 28 28 68 68 68 68 68 68
 68 63 63 63 63 63 81 12 12 12 72 72 72 72 72 72 72 72 87 87
 87 87 87 87 68 63 63 63 63 63 63 41 41 77 77 72 72 72 72 72
 72 67 87 87 87 87 87 87 87 87 63 63 63 63 63 41 41 41 77 77
 77 72 72 72 67 67 67 67 87 87 87 87 87 87 87 87 63 63 34 34
 41 41 41 77 77 77 72 72 67 67 67 67 67 87 87 87 87 87 87 87
 87 34 34 34 34 41 41 27 27 77 77 37 37 67 76 67 67 67 87 87
 87 87 87 87 87 87 79 13 34 34 27 27 27 27 27 27 76 76 76 76
 76 76 87 87 87 87 87 87 87 87 87 13 13 13 27 27 27 27 27 27
 27 76 76 76 76 76 76 87 87 87 87 87 87 87 87 13 13 13 79 27
 27 27 27 27 27 76 76 76 76 76 76 76 76 87 87 87 87 87 87 19
 13 13 79 79 27 27 27 27 27 27 60 60 76 76 76 76 76 76 55 55
 55 55 19 19 19 19 79 79 79 27 27 27 27 27 35 60 60 60 60 76
 76 76 76 62 55 55 19 19 19 19 19 49 79 79 27 35 35 35 35 35
 35 60 60 60 78 78 78 78 78 78 19 19 19 19 19 19 49 49 49 27
 35 35 35 35 35 35 35 60 78 78 78 78 78 78 78 19 19 19 19 19
 19 49 49 49 49 35 35 35 35 35 35 35 78 78 78 78 50 78 78 78
 78 19 19 19 19 19 19 49 49 49 35 35 35 35 35 35 35 16 16 16
 50 50 50 78 78 78 19 19 19 19 19 19 19 19 35 35 35 35 35 35
 35 35 16 16 16 16 50 50 78 78 78 19 19 19 19 19 19 19 19 35
 35 35 35 35 35 35 35 16 16 16 16 16 78 78 78 68 43 43 43 43
 43 4 4 2 2 2 35 35 35 35 35 16 16 16 16 16 16 78 78 68
 68 68 43 43 43 43 4 4 4 2 2 12 12 12 12 12 12 16 16 16
 16 16 5 68 68 68 68 43 43 43 4 4 4 4 4 12 12 12 12 12
 12 12 12 12 16 16 28 28 68 68 68 68 43 43 43 4 4 4 4 4
 12 12 12 12 12 12 12 12 12 12 28 28 28 68 68 68 68 68 43 43
 43 4 4 4 4 12 12 12 12 12 12 12 12 12 12 28 28 28 28 68
 68 68 68 68 68 68 4 4 4 4 12 12 12 12 12 12 12 12 12 72
 28 28 28 28 68 68 68 68 68 68 68 68 9 9 9 12 12 12 12 12
 12 12 12 12 28 28 28 28 28 28 68 68 68 68 68 68 68 9 9 9
 81 12 12 12 12 12 12 12 72 72 28 28 28 28 28 68 68 68 68 68
 68 63 63 63 63 81 81 12 12 12 12 12 72 72 72 72 28 28 28 28
 87 68 68 68 68 63 63 63 63 63 63 81 81 12 12 12 12 72 72 72
 72 72 28 87 87 87 87 87 87 68 63 63 63 63 63 63 81 81 12 12
 12 89 72 72 72 72 87 87 87 87 87 87 87 87 87 63 63 63 63 63
 63 41 41 77 77 37 37 37 72 67 67 87 87 87 87 87 87 87 87 87
 87 63 63 34 34 13 41 41 11 11 37 37 37 37 67 67 87 87 87 87
 87 87 87 87 87 87 34 34 34 34 13 13 11 11 11 37 37 37 37 76
 67 87 87 87 87 87 87 87 87 87 87 34 13 34 34 13 27 11 11 11
 37 37 37 37 76 76 76 87 87 87 87 87 87 87 87 87 13 13 13 13
 27 27 27 11 11 37 37 37 76 76 76 76 87 87 87 87 87 87 87 13
 13 13 13 13 13 27 27 27 27 27 60 60 76 76 76 76 76 76 87 87
 87 87 87 87 13 13 13 13 13 13 27 27 27 27 60 60 60 60 76 76
 76 76 76 87 87 87 87 19 19 19 19 13 13 13 13 27 27 35 35 60
 60 60 60 60 60 76 76 76 76 87 36 19 19 19 19 19 49 49 13 13
 35 35 35 35 35 60 60 60 60 60 76 76 76 78 36 36 19 19 19 19
 49 49 49 49 49 35 35 35 35 35 35 60 60 60 60 78 78 78 78 36
 36 19 19 19 19 19 49 49 49 49 35 35 35 35 35 35 35 60 60 78
 91 91 91 78 36 36 19 19 19 19 19 49 49 49 49 35 35 35 35 35
 35 35 35 16 16 91 91 91 78 36 36 19 19 19 19 19 19 49 49 35
 35 35 35 35 35 35 35 16 16 16 16 91 91 78 78 36 19 19 19 19
 19 19 49 49 35 35 35 35 35 35 35 35 16 16 16 16 5 5 5 78
 68 19 19 19 19 19 19 4 4 2 35 35 35 35 35 35 35 16 16 16
 16 5 5 5 68 68 68 43 43 43 4 4 4 4 4 2 12 12 12 12
 12 12 12 5 5 5 5 5 5 68 68 68 43 43 43 4 4 4 4 4
 12 12 12 12 12 12 12 12 12 5 5 28 28 28 68 68 68 43 43 43
 4 4 4 4 4 12 12 12 12 12 12 12 12 12 12 28 28 28 28 28
 68 68 68 43 43 4 4 4 4 4 12 12 12 12 12 12 12 12 12 12
 28 28 28 28 28 68 68 68 68 68 68 4 4 4 4 12 12 12 12 12
 12 12 12 12 28 28 28 28 28 28 68 68 68 68 68 68 68 4 9 9
 81 12 12 12 12 12 12 12 12 28 28 28 28 28 28 28 68 68 68 68
 68 68 68 63 63 81 81 12 12 12 12 12 12 12 28 28 28 28 28 28
 28 68 68 68 68 68 63 63 63 63 81 81 81 12 12 12 12 12 12 72
 28 28 28 28 28 87 87 68 68 68 63 63 63 63 63 63 81 81 81 12
 12 89 89 89 72 72 28 28 28 87 87 87 87 87 87 63 63 63 63 63
 63 81 81 81 81 89 89 89 89 89 72 87 87 87 87 87 87 87 87 87
 63 63 63 63 63 63 81 81 81 81 89 89 89 89 89 87 87 87 87 87
 87 87 87 87 87 63 63 63 34 34 13 13 11 11 11 37 37 37 37 67
 87 87 87 87 87 87 87 87 87 87 13 13 34 34 34 13 13 11 11 11
 37 37 37 37 76 87 87 87 87 87 87 87 87 87 87 13 13 13 34 34
 13 13 11 11 11 11 37 37 37 76 76 87 87 87 87 87 87 87 87 13
 13 13 13 13 13 13 13 11 11 11 11 37 37 37 76 76 76 87 87 87
 87 87 87 87 13 13 13 13 13 13 13 13 11 11 11 60 60 60 76 76
 76 76 87 87 87 87 87 87 87 13 13 13 13 13 13 13 13 13 27 60
 60 60 60 60 76 76 76 76 87 87 87 87 87 13 13 13 13 13 13 13
 13 13 35 35 60 60 60 60 60 60 76 76 76 87 36 36 36 19 19 19
 19 49 13 13 13 35 35 35 35 35 60 60 60 60 60 76 76 91 36 36
 36 36 19 19 19 49 49 49 49 13 35 35 35 35 35 35 60 60 60 60
 91 91 91 36 36 36 36 19 19 19 49 49 49 49 49 35 35 35 35 35
 35 35 35 60 91 91 91 91 36 36 36 36 19 19 19 19 49 49 49 49
 35 35 35 35 35 35 35 35 35 16 91 91 91 5 36 36 36 19 19 19
 19 49 49 49 35 35 35 35 35 35 35 35 35 35 16 5 91 5 5 36
 36 19 19 19 19 19 49 49 49 35 35 35 35 35 35 35 35 35 35 5
 5 5 5 5 5 36 19 19 19 19 19 19 4 4 35 35 35 35 35 35
 35 35 35 16 5 5 5 5 5 5 68 68 43 43 43 4 4 4 4 4
 12 12 12 12 12 31 31 31 5 5 5 5 5 5 68 68 68 43 43 43
 4 4 54 54 54 12 12 12 12 12 31 31 31 5 5 28 28 28 28 28
 68 68 68 43 43 4 4 4 4 4 12 12 12 12 12 12 12 12 12 28
 28 28 28 28 28 68 68 68 68 43 4 4 4 4 4 12 12 12 12 12
 12 12 12 12 28 28 28 28 28 28 28 68 68 68 68 68 4 4 4 4
 81 12 12 12 12 12 12 12 12 28 28 28 28 28 28 28 68 68 68 68
 68 68 4 4 81 81 81 12 12 12 12 12 12 12 28 28 28 28 28 28
 28 28 68 68 68 68 68 63 81 81 81 81 81 12 12 12 12 12 12 28
 28 28 28 28 28 28 28 68 68 68 68 63 63 63 81 81 81 81 81 12
 12 12 89 89 89 28 28 28 28 28 28 28 68 68 68 63 63 63 63 63
 81 81 81 81 81 89 89 89 89 89 89 28 28 28 28 87 87 87 87 87
 63 63 63 63 63 81 81 81 81 81 89 89 89 89 89 89 87 87 87 87
 87 87 87 87 87 63 63 63 63 63 81 81 81 81 81 89 89 89 89 89
 87 87 87 87 87 87 87 87 87 87 63 63 63 63 63 13 13 13 11 89
 89 89 89 89 89 87 87 87 87 87 87 87 87 87 87 13 13 13 34 34
 13 13 13 11 11 37 37 37 37 71 87 87 87 87 87 87 87 87 87 13
 13 13 13 13 13 13 13 13 11 11 71 37 37 37 71 71 87 87 87 87
 87 87 87 87 13 13 13 13 13 13 13 13 13 11 11 71 71 37 71 71
 71 87 87 87 87 87 87 87 13 13 13 13 13 13 13 13 13 13 11 71
 71 71 71 71 71 71 76 87 87 87 87 87 87 13 13 13 13 13 13 13
 13 13 13 71 71 71 60 60 60 60 76 76 24 24 87 87 87 87 13 13
 13 13 13 13 13 13 13 35 35 60 60 60 60 60 60 76 76 24 36 36
 36 36 36 13 13 13 13 13 13 13 35 35 35 35 35 60 60 60 60 60
 60 60 36 36 36 36 36 36 19 19 49 49 49 13 13 35 35 35 35 35
 35 60 60 60 60 91 91 91 36 36 36 36 36 19 19 49 49 49 49 74
 35 35 35 35 35 35 35 60 60 91 91 91 91 36 36 36 36 36 19 19
 49 49 49 74 74 35 35 35 35 35 35 35 35 5 5 5 91 5 5 36
 36 36 19 19 19 19 49 74 74 74 35 35 35 35 35 35 35 35 5 5
 5 5 5 5 36 36 36 19 19 19 19 49 74 74 74 35 35 35 35 35
 35 35 35 5 5 5 5 5 5 5 36 19 19 19 19 19 19 74 74 74
 35 35 35 35 35 35 35 35 5 5 5 5 5 5 5 68 68 43 43 43
 4 4 54 54 54 12 12 12 31 31 31 31 31 5 5 5 5 5 5 5
 68 68 68 30 54 54 54 54 54 54 12 12 12 12 31 31 31 31 5 5
 28 28 28 28 28 28 68 68 30 54 54 54 54 54 54 12 12 12 12 31
 31 31 12 12 28 28 28 28 28 28 28 68 68 30 30 54 54 54 54 54
 81 12 12 12 12 12 12 12 12 14 28 28 28 28 28 28 28 68 68 30
 54 54 54 54 81 81 81 12 12 12 12 12 12 14 14 28 28 28 28 28
 28 28 68 68 68 68 54 54 81 81 81 81 81 12 12 12 12 12 14 14
 14 28 28 28 28 28 28 68 68 68 68 63 81 81 81 81 81 81 81 12
 12 12 89 14 14 14 28 28 28 28 28 28 28 68 68 63 63 63 63 81
 81 81 81 81 81 89 89 89 89 89 14 28 28 28 28 28 28 28 68 63
 63 63 63 63 81 81 81 81 81 81 89 89 89 89 89 89 28 28 28 28
 28 87 87 87 63 63 63 63 63 81 81 81 81 81 81 89 89 89 89 89
 89 87 87 28 87 87 87 87 87 87 63 63 63 63 81 81 81 81 81 81
 89 89 89 89 89 89 87 87 87 87 87 87 87 87 13 13 13 13 13 13
 13 13 81 86 89 89 89 89 89 89 87 87 87 87 87 87 87 87 87 13
 13 13 13 13 13 13 13 13 86 86 71 71 71 71 71 71 87 87 87 87
 87 87 87 87 13 13 13 13 13 13 13 13 13 86 86 71 71 71 71 71
 71 71 87 87 87 87 87 87 13 13 13 13 13 13 13 13 13 13 86 71
 71 71 71 71 71 71 24 24 87 87 87 87 87 13 13 13 13 13 13 13
 13 13 13 86 71 71 71 71 71 71 71 24 24 24 24 87 87 13 13 13
 13 13 13 13 13 13 13 13 71 71 71 71 71 71 71 71 24 24 24 24
 24 36 13 13 13 13 13 13 13 13 13 13 13 71 71 71 71 71 71 71
 71 24 24 24 24 36 36 36 13 13 13 13 13 13 13 13 35 35 35 35
 71 60 60 60 60 60 5 36 36 36 36 36 36 19 19 13 13 13 13 13
 35 35 35 35 35 35 60 60 60 52 5 5 36 36 36 36 36 36 19 19
 49 49 49 74 74 74 35 35 35 35 35 35 60 60 5 5 5 5 36 36
 36 36 36 19 19 19 74 74 74 74 74 35 35 35 35 35 35 35 5 5
 5 5 5 5 36 36 36 36 19 19 19 74 74 74 74 74 35 35 35 35
 35 35 35 5 5 5 5 5 5 36 36 36 19 19 19 19 74 74 74 74
 35 35 35 35 35 35 35 5 5 5 5 5 5 5 5 36 36 19 19 19
 19 74 74 74 74 35 35 35 35 35 35 35 5 5 5 5 5 5 5 5
 5 68 43 30 30 54 54 54 54 74 81 12 12 31 31 31 31 31 5 5
 5 5 5 5 5 28 68 30 30 30 30 54 54 54 54 81 12 12 31 31
 31 31 31 5 5 28 28 28 28 28 28 28 30 30 30 30 54 54 54 54
 81 12 12 12 31 31 31 31 28 28 28 28 28 28 28 28 28 30 30 30
 30 54 54 54 54 81 81 12 12 12 12 12 12 14 14 14 28 28 28 28
 28 28 30 30 30 30 54 54 54 81 81 81 81 12 12 12 12 12 14 14
 14 14 28 28 28 28 28 28 30 30 30 54 54 81 81 81 81 81 81 81
 12 12 12 14 14 14 14 28 28 28 28 28 28 68 68 29 29 81 81 81
 81 81 81 81 81 12 89 89 14 14 14 14 28 28 28 28 28 28 28 29
 29 63 63 81 81 81 81 81 81 81 89 89 89 89 14 14 14 28 28 28
 28 28 28 29 29 63 63 63 81 81 81 81 81 81 81 89 89 89 89 89
 14 28 28 28 28 28 28 87 87 63 63 63 63 81 81 81 81 81 81 81
 89 89 89 89 89 89 28 28 28 28 87 87 87 87 13 63 63 63 81 81
 81 81 81 81 81 89 89 89 89 89 89 87 87 87 87 87 87 87 87 13
 13 13 13 13 81 13 13 86 86 86 89 89 89 89 89 89 87 87 87 87
 87 87 87 87 13 13 13 13 13 13 13 13 86 86 86 71 71 71 71 71
 71 71 87 87 87 87 87 87 13 13 13 13 13 13 13 13 13 86 86 86
 71 71 71 71 71 71 71 87 87 87 87 87 87 13 13 13 13 13 13 13
 13 13 86 86 86 71 71 71 71 71 71 24 24 24 24 87 87 13 13 13
 13 13 13 13 13 13 13 13 86 71 71 71 71 71 71 71 24 24 24 24
 24 87 13 13 13 13 13 13 13 13 13 13 13 66 71 71 71 71 71 71
 71 24 24 24 24 24 24 13 13 13 13 13 13 13 13 13 13 66 66 71
 71 71 71 71 71 71 24 24 24 24 24 36 13 13 13 13 13 13 13 13
 13 13 66 66 66 71 71 71 71 71 71 52 24 24 36 36 36 36 19 13
 13 13 13 13 13 74 1 1 1 1 1 71 71 71 52 52 5 36 36 36
 36 36 36 19 19 49 74 74 74 74 74 35 35 35 35 35 71 71 52 52
 5 5 5 36 36 36 36 36 19 19 19 74 74 74 74 74 35 35 35 35
 35 35 35 5 5 5 5 5 5 36 36 36 36 19 19 74 74 74 74 74
 74 35 35 35 35 35 35 5 5 5 5 5 5 5 36 36 36 36 19 19
 74 74 74 74 74 74 35 35 35 35 35 35 5 5 5 5 5 5 5 5
 36 36 36 30 30 30 74 74 74 74 74 35 35 35 35 35 5 5 5 5
 5 5 5 5 5 5 36 30 30 30 30 54 54 54 74 81 81 18 18 31
 31 31 31 5 5 5 5 5 5 28 28 30 30 30 30 30 30 6 6 6
 81 81 81 31 31 31 31 31 5 5 5 28 28 28 28 28 28 30 30 30
 30 30 6 6 6 81 81 81 12 31 31 31 18 18 14 14 14 28 28 28
 28 28 30 30 30 30 30 6 6 6 81 81 81 12 12 12 58 58 14 14
 14 14 14 28 28 28 28 30 30 30 30 30 6 6 81 81 81 81 81 81
 12 12 12 14 14 14 14 14 28 28 28 28 29 29 29 29 29 29 81 81
 81 81 81 81 81 81 89 89 14 14 14 14 14 28 28 28 28 29 29 29
 29 29 81 81 81 81 81 81 81 81 81 89 89 89 14 14 14 14 28 28
 28 28 29 29 29 29 29 81 81 81 81 81 81 81 81 89 89 89 89 14
 14 14 28 28 28 28 28 29 29 29 29 29 81 81 81 81 81 81 81 81
 89 89 89 89 89 14 28 28 28 28 28 28 29 29 29 29 63 81 81 81
 81 81 81 81 81 89 89 89 89 89 89 28 28 28 28 28 87 87 87 13
 13 63 81 81 81 81 81 81 81 81 89 89 89 89 89 89 95 95 95 95
 87 87 87 13 13 13 13 13 13 81 13 13 86 86 86 89 89 89 89 89
 89 95 95 95 95 87 87 87 13 13 13 13 13 13 13 13 13 86 86 86
 71 71 71 71 71 71 71 95 95 95 87 87 87 13 13 13 13 13 13 13
 13 13 86 86 86 71 71 71 71 71 71 71 24 24 24 87 87 13 13 13
 13 13 13 13 13 13 13 86 86 86 71 71 71 71 71 71 24 24 24 24
 24 87 13 13 13 13 13 13 13 13 13 13 13 86 71 71 71 71 71 71
 71 24 24 24 24 24 24 13 13 13 13 13 13 13 13 13 13 13 66 71
 71 71 71 71 71 71 24 24 24 24 24 24 13 13 13 13 13 13 13 13
 13 13 66 66 66 71 71 71 71 71 71 24 24 24 24 24 36 13 13 13
 13 13 13 13 13 13 1 66 66 66 66 71 71 71 52 52 52 24 24 24
 36 36 36 13 13 13 13 13 13 13 74 1 1 66 1 1 71 52 52 52
 52 52 52 36 36 36 36 36 19 13 13 74 74 74 74 74 1 1 1 1
 1 1 52 52 52 52 52 52 36 36 36 36 36 19 74 74 74 74 74 74
 74 74 1 1 1 1 1 52 52 52 5 5 5 61 36 47 47 47 47 74
 74 74 74 74 74 74 74 35 1 35 35 39 5 5 5 5 5 5 5 47
 47 47 47 47 74 74 74 74 74 74 74 74 35 35 35 35 39 5 5 5
 5 5 5 5 47 47 47 47 30 30 30 74 74 74 74 74 74 35 35 35
 39 39 5 5 5 5 5 5 5 5 47 47 30 30 30 30 30 74 74 74
 18 18 18 18 18 18 18 18 18 5 5 5 5 5 28 30 30 30 30 30
 30 6 6 6 6 81 81 18 18 18 18 18 18 18 14 14 14 28 28 28
 28 30 30 30 30 30 6 6 6 6 81 81 18 18 58 58 58 18 18 14
 14 14 14 28 28 28 29 30 30 30 30 6 6 6 6 81 81 81 58 58
 58 58 58 14 14 14 14 14 28 28 28 29 29 29 30 29 6 6 6 81
 81 81 81 81 58 58 58 58 14 14 14 14 14 14 28 28 29 29 29 29
 29 29 29 81 81 81 81 81 81 58 58 58 58 14 14 14 14 14 14 28
 28 29 29 29 29 29 29 29 81 81 81 81 81 81 81 58 58 89 89 14
 14 14 14 28 28 28 29 29 29 29 29 29 29 81 81 81 81 81 81 81
 58 89 89 89 89 14 14 14 28 28 28 29 29 29 29 29 29 29 81 81
 81 81 81 81 81 89 89 89 89 89 14 14 28 28 28 28 29 29 29 29
 29 29 29 81 81 81 81 81 81 81 89 89 89 89 89 89 95 95 95 95
 95 95 87 29 29 29 29 81 81 81 81 81 81 81 81 89 89 89 89 89
 95 95 95 95 95 95 95 95 13 13 13 13 13 13 81 13 3 3 86 86
 89 89 89 89 89 95 95 95 95 95 95 95 95 13 13 13 13 13 13 13
 3 3 3 86 86 71 71 71 71 71 71 95 95 95 95 95 95 13 13 13
 13 13 13 13 13 3 3 3 86 86 71 71 71 71 71 71 95 95 95 95
 95 95 13 13 13 13 13 13 13 13 13 3 3 86 86 71 71 71 71 71
 71 24 24 24 24 24 13 13 13 13 13 13 13 13 13 13 13 3 86 71
 71 71 71 71 71 71 24 24 24 24 24 24 13 13 13 13 13 13 13 13
 13 13 1 1 71 71 71 71 71 71 71 24 24 24 24 24 24 13 13 13
 13 13 13 13 13 13 1 1 66 66 71 71 71 71 52 52 52 24 24 24
 24 75 75 13 13 13 13 13 13 13 1 1 66 66 66 1 71 71 52 52
 52 52 52 24 24 24 75 75 75 13 13 13 13 13 13 1 1 1 66 1
 1 1 52 52 52 52 52 52 61 61 36 75 75 75 75 13 74 74 74 74
 74 1 1 1 1 1 1 52 52 52 52 52 61 61 61 36 36 36 75 75
 74 74 74 74 74 74 1 1 1 1 1 1 52 52 52 52 52 61 61 61
 47 47 47 47 74 74 74 74 74 74 74 1 1 1 1 1 39 39 39 5
 5 5 61 61 61 47 47 47 47 30 74 74 74 74 74 74 74 1 1 1
 39 39 39 39 5 5 5 5 5 47 47 47 47 30 30 30 74 74 74 74
 74 74 18 18 18 39 39 39 39 5 5 5 5 5 47 47 47 30 30 30
 30 6 6 74 74 18 18 18 18 18 18 18 18 18 18 18 5 5 5 28
 30 30 30 30 30 6 6 6 6 6 18 18 18 18 18 18 18 18 18 18
 14 14 14 32 28 28 30 30 30 30 6 6 6 6 6 81 18 18 18 18
 18 18 18 18 14 14 14 14 32 28 29 29 29 29 29 6 6 6 6 6
 81 81 58 58 58 58 58 58 58 14 14 14 14 32 28 29 29 29 29 29
 29 29 6 6 81 81 81 81 58 58 58 58 58 58 14 14 14 14 14 28
 29 29 29 29 29 29 29 29 29 81 81 81 81 58 58 58 58 58 58 14
 14 14 14 14 28 29 29 29 29 29 29 29 29 29 81 81 81 81 81 58
 58 58 58 58 14 14 14 14 14 28 29 29 29 29 29 29 29 29 81 81
 81 81 81 81 58 58 58 89 89 89 14 14 14 95 28 29 29 29 29 29
 29 29 29 81 81 81 81 81 81 81 58 89 89 89 89 95 95 95 95 95
 95 29 29 29 29 29 29 29 81 81 81 81 81 81 81 89 89 89 89 89
 95 95 95 95 95 95 95 95 29 29 29 29 94 94 81 81 81 81 81 81
 89 89 89 89 89 95 95 95 95 95 95 95 95 13 29 13 13 94 94 94
 3 3 3 3 86 89 89 89 89 89 95 95 95 95 95 95 95 95 13 13
 13 13 13 13 13 3 3 3 3 86 65 65 71 71 71 95 95 95 95 95
 95 95 95 13 13 13 13 13 13 13 3 3 3 3 86 65 65 71 71 71
 71 95 95 95 95 95 95 95 13 13 13 13 13 13 13 3 3 3 3 71
 65 65 71 71 71 71 95 95 95 95 95 95 13 13 13 13 13 13 13 13
 13 3 3 3 71 71 71 71 71 71 71 24 24 24 24 24 95 13 13 13
 13 13 13 13 13 13 1 1 1 1 71 71 71 71 71 71 71 24 24 24
 24 75 75 75 75 13 13 13 13 13 1 1 1 1 1 1 71 71 71 52
 52 52 52 24 24 24 75 75 75 75 75 13 13 13 13 1 1 1 1 1
 1 1 52 52 52 52 52 52 61 61 75 75 75 75 75 75 75 13 13 13
 1 1 1 1 1 1 1 52 52 52 52 52 61 61 61 61 75 75 75 75
 75 75 74 74 74 74 1 1 1 1 1 1 52 52 52 52 52 61 61 61
 61 47 75 75 75 75 74 74 74 74 74 1 1 1 1 1 1 52 52 52
 52 61 61 61 61 47 47 47 75 75 74 74 74 74 74 74 1 1 1 1
 39 39 39 39 52 52 61 61 61 61 47 47 47 47 30 74 74 74 74 74
 74 1 1 1 18 39 39 39 39 39 5 5 61 61 61 47 47 47 30 30
 6 74 74 74 74 74 18 18 18 18 18 39 39 39 39 5 5 5 61 61
 47 47 30 30 30 6 6 6 74 74 18 18 18 18 18 18 18 18 18 18
 18 18 32 32 32 32 30 30 30 6 6 6 6 6 6 18 18 18 18 18
 18 18 18 18 18 18 14 32 32 32 32 29 29 29 6 6 6 6 6 6
 18 18 18 18 18 18 18 18 18 18 18 14 32 32 32 29 29 29 29 29
 6 6 6 6 6 81 18 18 58 58 58 58 58 18 18 14 14 32 32 32
 29 29 29 29 29 29 29 29 29 29 81 81 58 58 58 58 58 58 58 14
 14 14 32 32 32 29 29 29 29 29 29 29 29 29 81 81 81 58 58 58
 58 58 58 58 14 14 14 14 14 28 29 29 29 29 29 29 29 29 29 81
 81 81 81 58 58 58 58 58 58 14 14 14 14 14 28 29 29 29 29 29
 29 29 29 29 81 81 81 81 58 58 58 58 58 58 89 14 95 95 95 95
 29 29 29 29 29 29 29 29 94 81 81 81 81 81 58 58 58 89 89 89
 95 95 95 95 95 95 29 29 29 29 29 29 94 94 94 81 81 81 81 81
 89 89 89 89 95 95 95 95 95 95 95 95 95 53 53 53 94 94 94 94
 3 3 81 81 81 89 89 89 89 95 95 95 95 95 95 95 95 95 53 53
 53 94 94 94 94 3 3 3 3 65 65 89 89 89 95 95 95 95 95 95
 95 95 95 53 13 13 13 94 94 94 3 3 3 3 65 65 65 65 65 95
 95 95 95 95 95 95 95 95 13 13 13 13 13 13 13 3 3 3 3 65
 65 65 65 65 71 95 95 95 95 95 95 95 95 13 13 13 13 13 13 13
 3 3 3 3 65 65 65 65 65 71 95 95 95 95 95 95 95 59 59 59
 13 13 13 13 13 13 3 3 3 65 65 65 65 71 71 71 95 95 95 95
 95 95 59 75 75 59 13 13 13 13 13 1 1 1 1 71 71 71 71 71
 71 52 95 24 24 95 75 75 75 75 75 75 13 13 13 1 1 1 1 1
 1 71 71 52 52 52 52 52 24 24 95 75 75 75 75 75 75 59 13 13
 1 1 1 1 1 1 1 52 52 52 52 52 52 61 61 75 75 75 75 75
 75 75 59 13 13 1 1 1 44 44 1 1 52 52 52 52 52 52 61 61
 10 75 75 75 75 75 59 59 74 74 1 1 44 44 44 44 1 52 52 52
 52 52 61 61 61 10 10 75 75 75 75 74 74 74 74 74 44 44 44 44
 44 1 52 52 52 52 52 61 61 61 10 10 10 75 75 74 74 74 74 74
 74 44 44 44 44 18 39 39 39 52 52 52 61 61 61 10 10 10 47 30
 74 74 74 74 74 74 18 18 18 18 18 39 39 39 39 18 5 61 61 61
 47 47 47 30 30 6 6 74 74 74 18 18 18 18 18 18 18 39 39 18
 18 5 5 61 61 47 47 30 30 30 6 6 6 6 74 18 18 18 18 18
 18 18 18 18 18 18 18 32 32 32 32 32 29 29 6 6 6 6 6 6
 18 18 18 18 18 18 18 18 18 18 18 32 32 32 32 32 32 29 29 29
 6 6 6 6 6 18 18 18 18 18 18 18 18 18 18 18 32 32 32 32
 32 29 29 29 29 29 29 29 29 29 18 18 18 18 58 58 58 18 18 18
 14 32 32 32 32 32 29 29 29 29 29 29 29 29 29 81 81 58 58 58
 58 58 58 58 18 14 32 32 32 32 29 29 29 29 29 29 29 29 29 29
 81 81 58 58 58 58 58 58 58 14 14 14 14 32 32 29 29 29 29 29
 29 29 29 29 81 81 81 58 58 58 58 58 58 58 58 14 14 14 14 29
 29 29 29 29 29 29 29 29 29 81 81 81 58 58 58 58 58 58 58 58
 95 95 95 95 95 29 29 29 29 29 29 29 29 94 94 94 81 81 58 58
 58 58 58 58 95 95 95 95 95 95 95 29 29 29 53 29 29 94 94 94
 94 94 81 81 58 58 89 89 80 95 95 95 95 95 95 95 95 29 53 53
 53 94 94 94 94 94 94 81 81 58 89 89 80 80 95 95 95 95 95 95
 95 95 95 53 53 53 94 94 94 94 3 3 3 3 42 42 80 80 80 95
 95 95 95 95 95 95 95 95 53 53 53 94 94 94 94 3 3 3 3 42
 65 65 42 42 95 95 95 95 95 95 95 95 95 95 59 13 13 13 13 13
 3 3 3 3 65 65 65 65 65 95 95 95 95 95 95 95 95 95 59 59
 59 13 13 13 13 3 3 3 3 65 65 65 65 65 95 95 95 95 95 95
 95 95 59 59 59 59 59 13 13 13 13 3 3 44 65 65 65 65 65 71
 95 95 95 95 95 95 59 59 59 59 59 59 59 13 13 13 1 1 44 1