# vtk DataFile Version 2.0
Data set from ImportExport Version 6.5.141.ec284b7a5
ASCII

DATASET RECTILINEAR_GRID
DIMENSIONS 26 26 26
X_COORDINATES 26 float
-3.000000 3.000000 9.000000 15.000000 21.000000 27.000000 33.000000 39.000000 45.000000 51.000000 57.000000 63.000000 69.000000 75.000000 81.000000 87.000000 93.000000 99.000000 105.000000 111.000000 117.000000 
123.000000 129.000000 135.000000 141.000000 147.000000 
Y_COORDINATES 26 float
-3.000000 3.000000 9.000000 15.000000 21.000000 27.000000 33.000000 39.000000 45.000000 51.000000 57.000000 63.000000 69.000000 75.000000 81.000000 87.000000 93.000000 99.000000 105.000000 111.000000 117.000000 
123.000000 129.000000 135.000000 141.000000 147.000000 
Z_COORDINATES 26 float
-3.000000 3.000000 9.000000 15.000000 21.000000 27.000000 33.000000 39.000000 45.000000 51.000000 57.000000 63.000000 69.000000 75.000000 81.000000 87.000000 93.000000 99.000000 105.000000 111.000000 117.000000 
123.000000 129.000000 135.000000 141.000000 147.000000 
CELL_DATA 15625
SCALARS FeatureIds int 1
LOOKUP_TABLE default
 28 28 28 28 28 2 2 2 2 2 2 2 2 2 82 82 82 82 82 82
 82 82 82 28 28 28 28 28 28 28 2 2 2 2 2 2 2 2 2 82
 82 82 82 82 82 82 82 82 28 28 28 28 28 28 28 19 19 19 19 2
 2 2 2 2 82 82 82 82 82 82 82 82 82 28 28 28 28 28 28 28
 19 19 19 19 19 2 2 2 2 82 82 82 82 82 82 82 82 6 6 6
 6 6 28 28 19 19 19 19 19 19 2 2 2 2 82 82 82 82 82 82
 82 6 6 6 6 6 6 6 6 19 19 19 19 19 23 23 23 57 57 57
 82 82 82 82 82 6 6 6 6 6 6 6 6 6 6 23 23 23 23 23
 23 23 57 57 57 57 82 82 82 6 6 6 6 6 6 6 6 6 6 6
 23 23 23 23 23 23 23 57 57 57 57 84 84 84 84 6 6 6 6 6
 6 6 6 6 92 92 23 23 41 41 41 23 57 57 57 57 84 84 84 84
 84 6 6 6 6 6 6 6 6 92 92 92 23 41 41 41 23 57 57 57
 57 84 84 84 84 84 84 6 6 6 6 6 6 6 92 92 23 23 41 41
 41 23 23 57 57 84 84 84 84 84 84 84 6 6 6 6 6 6 56 56
 56 56 23 23 23 23 23 23 23 57 84 84 84 84 84 84 84 6 6 6
 6 6 6 56 56 56 56 56 56 23 23 23 23 42 42 55 55 55 55 55
 55 55 55 6 6 6 85 85 56 56 56 56 56 56 56 42 42 42 42 42
 55 55 55 55 55 55 55 55 55 55 85 85 85 56 56 56 56 56 56 56
 42 42 42 42 42 42 55 55 55 55 55 55 55 55 55 85 85 85 54 56
 56 56 56 56 42 42 42 42 42 42 42 55 55 55 55 55 55 55 55 55
 85 85 39 54 39 77 77 56 42 42 42 42 42 42 42 42 55 55 55 55
 55 55 55 55 55 10 39 39 54 39 39 77 77 42 42 42 42 42 42 42
 42 42 55 55 55 55 55 55 55 55 10 39 39 39 39 39 2 2 42 42
 42 42 42 42 42 42 42 55 55 55 55 55 55 55 10 10 39 39 39 39
 39 2 2 2 2 42 42 42 42 42 42 42 55 55 55 55 55 55 10 10
 59 59 59 59 59 59 2 2 2 2 2 2 42 42 42 42 90 90 90 75
 75 75 75 10 10 59 59 59 59 59 59 2 2 2 2 2 2 2 42 42
 42 90 90 90 75 75 75 75 30 30 59 59 59 59 59 2 2 2 2 2
 2 2 2 2 42 82 90 90 90 75 75 75 75 30 30 43 43 59 59 59
 2 2 2 2 2 2 2 2 2 82 82 82 82 82 82 82 82 82 30 30
 28 28 59 59 59 2 2 2 2 2 2 2 2 2 82 82 82 82 82 82
 82 82 82 30 30 30 30 30 30 2 2 2 2 2 2 2 2 2 2 82
 82 82 82 82 82 82 82 82 11 28 28 30 28 28 28 2 2 2 2 2
 2 2 2 2 82 82 82 82 82 82 82 82 82 11 28 28 28 28 28 28
 19 19 19 19 2 2 2 2 82 82 82 82 82 82 82 82 82 82 6 28
 6 28 28 28 19 19 19 19 19 19 2 2 2 82 82 82 82 82 82 82
 82 82 6 6 6 6 6 6 6 19 19 19 19 19 19 2 2 2 82 82
 82 82 82 82 82 82 6 6 6 6 6 6 6 6 17 19 19 19 19 19
 23 57 57 57 57 82 82 82 82 6 6 6 6 6 6 6 6 6 6 6
 19 19 19 23 23 23 57 57 57 57 57 82 82 82 6 6 6 6 6 6
 6 6 6 6 6 23 41 41 41 41 41 57 57 57 57 57 57 84 84 84
 6 6 6 6 6 6 6 6 6 6 92 41 41 41 41 41 41 57 57 57
 57 84 84 84 84 84 6 6 6 6 6 6 6 6 92 92 41 41 41 41
 41 41 57 57 57 57 84 84 84 84 84 84 6 6 6 6 6 6 6 92
 92 41 41 41 41 41 41 41 57 57 57 84 84 84 84 84 84 6 6 6
 6 6 6 56 56 56 56 56 41 41 41 41 41 23 57 91 84 84 84 84
 84 6 6 6 6 6 6 6 56 56 56 56 56 56 56 41 41 42 91 91
 91 91 55 55 55 55 55 6 6 6 6 85 85 56 56 56 56 56 56 56
 56 42 42 42 91 91 55 55 55 55 55 55 55 6 6 85 85 85 56 56
 56 56 56 56 56 42 42 42 42 42 42 55 55 55 55 55 55 55 55 55
 85 85 85 85 77 77 77 77 77 42 42 42 42 42 42 42 55 55 55 55
 55 55 55 55 55 85 85 39 39 39 77 77 77 77 42 42 42 42 42 42
 42 55 55 55 55 55 55 55 55 55 10 39 39 39 39 39 77 77 77 42
 42 42 42 42 42 42 42 55 55 55 55 55 55 55 10 10 39 39 39 39
 39 39 77 2 42 42 42 42 42 42 42 42 55 55 55 55 55 55 10 10
 10 39 39 39 39 39 2 2 2 2 2 42 42 42 42 42 42 90 90 55
 55 55 10 10 10 10 39 59 59 59 59 2 2 2 2 2 2 2 42 42
 42 90 90 90 75 75 75 75 10 10 30 59 59 59 59 59 2 2 2 2
 2 2 2 2 42 90 90 90 90 75 75 75 30 30 30 30 30 59 59 59
 2 2 2 2 2 2 2 2 2 2 90 90 90 90 75 75 75 30 30 30
 30 30 30 59 59 2 2 2 2 2 2 2 2 2 82 82 82 82 82 82
 82 82 30 30 30 30 30 30 30 59 2 2 2 2 2 2 2 2 2 82
 82 82 82 82 82 82 82 82 30 30 30 30 30 30 30 2 2 2 2 2
 2 2 2 82 82 82 82 82 82 82 82 11 11 11 30 30 30 30 30 30
 2 2 2 2 2 2 2 2 82 82 82 82 82 82 82 82 11 11 11 11
 6 30 30 28 19 19 19 19 19 2 2 2 2 82 82 82 82 82 82 82
 82 11 11 11 11 6 6 6 17 19 19 19 19 19 19 2 2 2 82 82
 82 82 82 82 82 82 6 6 6 6 6 6 6 17 17 19 19 19 19 19
 2 2 53 53 82 82 82 82 82 82 6 6 6 6 6 6 6 6 6 17
 19 19 19 19 19 41 53 53 53 53 82 82 82 82 6 6 6 6 6 6
 6 6 6 6 17 17 1 1 41 41 41 57 57 57 53 53 82 82 6 6
 6 6 6 6 6 6 6 6 6 17 1 1 41 41 41 41 57 57 57 57
 57 57 84 84 84 6 6 6 6 6 6 6 6 6 6 92 41 41 41 41
 41 41 57 57 57 57 84 84 84 84 84 6 6 6 6 6 6 6 6 92
 92 41 61 61 41 41 41 57 57 57 57 84 84 84 84 84 6 6 6 6
 6 6 6 6 92 92 31 61 61 41 41 41 41 57 57 57 84 84 84 84
 84 6 6 6 6 6 6 6 56 56 56 56 56 56 41 41 41 41 57 91
 91 84 84 84 84 84 6 6 6 6 6 6 6 56 56 56 56 56 56 56
 56 56 71 91 91 91 91 91 84 55 84 6 6 6 6 6 6 56 56 56
 56 56 56 56 56 56 56 71 71 91 91 91 55 55 55 55 55 55 6 6
 85 85 85 56 56 56 56 56 56 56 56 71 71 71 91 91 91 55 55 55
 55 55 55 55 6 85 85 85 39 77 77 77 77 77 77 42 42 71 71 42
 42 55 55 55 55 55 55 55 55 10 10 10 39 39 77 77 77 77 77 77
 42 42 42 42 42 42 42 55 55 55 55 55 55 80 10 10 10 39 39 39
 39 77 77 77 77 42 42 42 42 42 42 42 55 55 55 55 80 80 10 10
 10 10 39 39 39 39 39 77 77 77 42 42 42 42 42 42 42 55 55 55
 55 80 80 10 10 10 10 39 39 39 39 39 2 2 2 2 2 42 42 42
 42 42 90 90 55 80 80 10 10 10 10 10 39 39 39 39 2 2 2 2
 2 2 2 42 42 42 90 90 90 90 75 75 10 10 10 30 30 59 59 59
 2 2 2 2 2 2 2 2 2 2 90 90 90 90 90 75 75 30 30 30
 30 30 30 59 59 2 2 2 2 2 2 2 2 2 2 82 82 90 90 82
 82 75 30 30 30 30 30 30 30 59 2 2 2 2 2 2 2 2 2 82
 82 82 82 82 82 82 82 30 30 30 30 30 30 30 30 2 2 2 2 2
 2 2 2 2 82 82 82 82 82 82 82 82 11 30 30 30 30 30 30 30
 2 2 2 2 2 2 2 2 82 82 82 82 82 82 82 11 11 11 11 30
 30 30 30 30 30 2 2 2 2 2 2 2 2 82 82 82 82 82 82 82
 11 11 11 11 11 6 30 30 30 17 19 19 2 2 2 2 2 2 82 82
 82 82 82 82 82 11 11 11 11 11 6 6 17 17 17 17 19 19 19 2
 2 2 2 82 82 82 82 82 82 82 11 11 11 6 6 6 6 17 17 17
 17 19 19 19 21 21 53 53 53 53 51 82 82 82 6 6 6 6 6 6
 6 6 17 17 17 17 19 1 21 21 21 53 53 53 53 51 51 51 82 6
 6 6 6 6 6 6 6 6 17 17 17 1 1 1 61 61 53 53 53 53
 51 51 51 6 6 6 6 6 6 6 6 6 6 17 17 1 1 1 61 61
 61 61 53 53 53 51 51 84 84 6 6 6 6 6 6 6 6 6 6 17
 1 1 61 61 61 61 61 57 57 57 57 5 84 84 84 6 6 6 6 6
 6 6 6 6 6 31 31 61 61 61 61 61 61 57 57 5 5 5 84 84
 6 6 6 6 6 6 6 6 6 31 31 31 31 61 61 61 61 61 49 49
 5 5 5 84 84 84 6 6 6 6 6 6 6 6 31 31 31 31 31 61
 61 61 71 71 49 91 5 5 84 84 84 6 6 6 6 6 6 6 56 56
 56 56 56 56 56 56 71 71 71 91 91 91 91 84 84 84 6 6 6 6
 6 6 56 56 56 56 56 56 56 56 56 71 71 71 91 91 91 91 55 55
 55 55 6 6 6 6 85 56 56 56 56 56 56 56 56 56 71 71 71 91
 91 91 91 55 55 55 80 80 80 6 10 85 39 39 39 77 77 77 77 77
 71 71 71 71 71 71 71 55 55 55 80 80 80 80 80 10 10 39 39 39
 77 77 77 77 77 71 71 71 71 71 71 71 71 80 80 80 80 80 80 80
 10 10 39 39 39 39 77 77 77 77 77 73 73 73 73 73 71 71 80 80
 80 80 80 80 10 10 10 39 39 39 39 39 77 77 77 2 73 73 73 73
 73 42 55 80 80 80 80 80 10 10 10 10 39 39 39 39 39 2 2 2
 2 2 2 73 73 73 42 90 80 80 80 80 80 10 10 10 10 39 39 39
 39 2 2 2 2 2 2 2 2 2 90 90 90 90 90 80 80 80 10 10
 30 30 39 39 39 39 2 2 2 2 2 2 2 2 2 90 90 90 90 90
 80 80 30 30 30 30 30 30 30 59 2 2 2 2 2 2 2 2 2 2
 82 82 90 82 82 11 11 30 30 30 30 30 30 30 30 2 2 2 2 2
 2 2 2 2 82 82 82 82 82 82 11 11 11 30 30 30 30 30 30 30
 2 2 2 2 2 2 2 2 2 82 82 82 82 82 82 11 11 11 11 30
 30 30 30 30 30 2 2 2 2 2 2 2 2 82 82 82 82 82 82 11
 11 11 11 11 11 30 30 30 30 30 2 2 2 2 2 2 2 2 82 82
 82 82 82 82 11 11 11 11 11 11 6 30 17 17 17 17 2 2 2 2
 2 2 2 82 82 82 82 82 82 11 11 11 11 11 11 6 6 17 17 17
 17 19 19 21 21 21 21 53 82 51 51 82 82 82 11 11 11 11 11 6
 6 6 17 17 17 17 17 21 21 21 21 21 53 53 51 51 51 51 82 6
 6 6 6 6 6 6 6 17 17 17 17 21 21 21 21 21 21 53 53 51
 51 51 51 51 6 6 6 6 6 6 6 6 17 17 17 17 1 1 1 21
 21 21 53 53 53 51 51 51 6 6 6 6 6 6 6 6 6 6 17 17
 1 1 1 1 21 21 21 53 53 53 51 51 5 6 6 6 6 6 6 6
 6 6 6 17 17 1 1 1 61 61 61 61 61 53 53 51 5 5 5 6
 6 6 6 6 6 6 6 6 6 31 31 31 31 61 61 61 61 61 49 49
 5 5 5 5 6 6 6 6 6 6 6 6 6 31 31 31 31 31 31 61
 61 61 61 49 49 49 5 5 5 6 6 6 6 6 6 6 6 6 31 31
 31 31 31 31 31 31 71 71 71 49 49 49 5 5 84 6 6 6 6 6
 6 6 31 31 31 31 56 56 31 31 31 71 71 71 36 36 36 36 36 84
 6 6 6 6 6 6 6 56 56 56 56 56 56 56 56 71 71 71 71 36
 36 36 36 36 36 80 80 80 6 6 6 64 64 64 64 64 56 56 56 56
 71 71 71 71 71 36 36 36 36 80 80 80 80 80 27 10 10 64 64 64
 64 77 77 77 77 71 71 71 71 71 71 71 71 80 80 80 80 80 80 80
 10 10 39 39 64 64 77 77 77 77 71 71 73 73 73 71 71 71 80 80
 80 80 80 80 80 10 10 39 39 39 39 77 77 77 77 71 73 73 73 73
 73 71 71 80 80 80 80 80 80 80 10 10 39 39 39 39 39 77 77 2
 71 73 73 73 73 73 71 71 80 80 80 80 80 80 10 10 10 39 39 39
 39 39 2 2 2 2 2 73 73 73 73 73 80 80 80 80 80 80 80 10
 10 10 39 39 39 39 39 2 2 2 2 2 2 73 73 73 90 8 8 80
 80 80 80 10 10 30 30 39 39 39 39 2 2 2 2 2 2 2 2 2
 8 8 8 8 8 80 80 80 30 30 30 30 30 30 30 2 2 2 2 2
 2 2 2 2 2 8 8 8 8 8 11 11 11 30 30 30 30 30 30 30
 2 2 2 2 2 2 2 2 2 8 8 8 8 8 11 11 11 11 30 30
 30 30 30 30 30 2 2 2 2 2 2 2 2 2 82 82 8 8 8 11
 11 11 11 11 30 30 30 30 30 30 12 12 12 2 2 2 2 2 8 8
 8 8 8 11 11 11 11 11 11 11 30 30 30 30 17 12 12 12 12 2
 2 2 2 82 82 8 8 8 11 11 11 11 11 11 11 6 93 17 17 17
 17 12 12 12 21 21 21 21 51 51 82 82 82 11 11 11 11 11 11 11
 6 93 17 17 17 17 19 21 21 21 21 21 21 51 51 51 51 51 11 11
 11 11 11 11 6 6 17 17 17 17 17 21 21 21 21 21 21 21 51 51
 51 51 51 51 11 11 11 6 6 6 6 17 17 17 17 17 21 21 21 21
 21 21 21 51 51 51 51 51 51 6 6 6 6 6 6 6 6 17 17 17
 17 1 1 21 21 21 21 21 51 51 51 51 51 51 6 6 6 6 6 6
 6 6 17 17 17 1 1 1 1 21 21 21 21 51 51 51 51 51 6 6
 6 6 6 6 6 6 6 6 17 17 1 1 1 1 21 21 21 21 21 51
 51 5 5 5 6 6 6 6 6 6 6 6 6 6 31 31 31 31 31 61
 61 61 21 21 49 5 5 5 5 5 6 6 6 6 6 6 6 6 31 31
 31 31 31 31 31 61 61 71 49 49 49 5 5 5 5 6 6 6 6 6
 6 6 6 31 31 31 31 31 31 31 31 71 71 71 49 49 49 5 5 5
 6 6 6 6 6 6 6 31 31 31 31 31 31 31 31 31 71 71 71 36
 36 36 36 36 84 6 6 6 6 6 27 27 56 56 56 56 56 56 56 31
 71 71 71 71 36 36 36 36 36 80 80 80 80 27 27 27 27 64 64 64
 64 56 56 56 56 71 71 71 71 71 36 36 71 71 80 80 80 80 80 27
 10 10 64 64 64 64 64 77 77 71 71 71 71 71 71 71 71 71 80 80
 80 80 80 80 80 10 10 39 64 64 64 64 77 77 71 71 71 73 73 73
 71 71 71 80 80 80 80 80 80 80 10 10 39 39 39 39 77 77 77 71
 71 73 73 73 73 73 71 71 80 80 80 80 80 80 80 10 10 39 39 39
 39 39 77 77 71 71 73 73 73 73 73 71 71 80 80 80 80 80 80 80
 10 10 39 39 39 39 39 2 2 2 2 73 73 73 73 73 73 80 80 80
 80 80 80 80 80 10 10 39 39 39 39 39 2 2 2 2 2 73 73 73
 73 8 8 8 80 80 80 80 80 10 30 30 39 39 39 39 2 2 2 2
 2 2 2 2 8 8 8 8 8 8 80 80 80 30 30 30 30 30 30 39
 2 2 2 2 2 2 2 2 2 8 8 8 8 8 8 8 11 11 30 30
 30 30 30 30 30 2 2 2 2 2 2 2 2 2 8 8 8 8 8 8
 11 11 11 30 30 30 30 30 30 30 2 2 2 2 2 2 2 2 2 8
 8 8 8 8 11 11 11 11 11 30 30 30 30 30 12 12 12 12 12 12
 12 12 12 8 8 8 8 8 8 11 11 11 11 11 11 93 93 93 93 93
 12 12 12 12 12 12 12 12 8 8 8 8 8 11 11 11 11 11 11 11
 93 93 93 93 93 93 12 12 12 12 12 21 21 8 8 8 8 8 11 11
 11 11 11 11 11 93 93 93 93 93 93 12 12 21 21 21 21 21 51 51
 51 51 51 11 11 11 11 11 11 11 93 93 93 17 17 93 21 21 21 21
 21 21 21 51 51 51 51 51 51 11 11 11 6 6 6 6 93 17 17 17
 93 21 21 21 21 21 21 21 51 51 51 51 51 51 6 6 6 6 6 6
 6 93 17 17 17 93 21 21 21 21 21 21 21 21 51 51 51 51 29 6
 6 6 6 6 6 6 6 93 93 93 21 1 1 21 21 21 21 21 21 51
 51 51 29 29 6 6 6 6 6 6 6 6 93 93 93 21 21 21 21 21
 21 21 21 21 21 5 5 5 5 6 6 6 6 6 6 6 6 6 93 31
 31 31 31 21 21 21 21 21 21 5 5 5 5 5 5 6 6 6 6 6
 6 6 6 31 31 31 31 31 31 31 21 21 21 49 49 49 5 5 5 5
 6 6 6 6 6 27 27 27 31 31 31 31 31 31 31 31 71 71 71 49
 49 49 5 5 5 6 6 27 27 27 27 27 27 31 31 31 31 31 31 31
 71 71 71 71 71 36 36 36 79 79 79 27 27 27 27 27 27 27 31 31
 31 31 31 31 31 71 71 71 71 71 36 36 71 71 80 80 27 27 27 27
 27 27 27 64 64 64 56 56 56 71 71 71 71 71 71 71 71 71 80 80
 80 80 80 80 27 27 45 45 64 64 64 64 77 77 71 71 71 71 71 71
 71 71 71 80 80 80 80 80 80 80 45 45 45 64 64 64 64 77 77 71
 71 71 71 71 71 71 71 71 80 80 80 80 80 80 80 45 45 39 39 39
 64 64 77 71 71 71 71 73 73 73 71 71 71 80 80 80 80 80 80 80
 10 10 39 39 39 39 39 67 71 71 71 71 73 73 73 71 71 71 80 80
 80 80 80 80 80 10 10 39 39 39 39 39 67 2 13 71 73 73 73 73
 71 71 71 80 80 80 80 80 80 80 10 10 39 39 39 39 39 2 2 2
 2 13 73 73 73 8 8 8 8 8 80 80 80 80 80 30 30 39 39 39
 39 2 2 2 2 2 2 13 13 8 8 8 8 8 8 8 80 80 80 80
 72 72 72 30 39 12 12 12 2 2 2 2 2 8 8 8 8 8 8 8
 8 8 11 30 30 72 72 72 30 30 12 12 12 12 12 2 2 2 8 8
 8 8 8 8 8 11 11 11 11 30 72 72 72 30 30 12 12 12 12 12
 12 12 2 8 8 8 8 8 8 8 11 11 11 11 30 16 93 93 93 12
 12 12 12 12 12 12 12 12 8 8 8 8 8 8 11 11 11 11 11 16
 93 93 93 93 93 12 12 12 12 12 12 12 12 8 8 8 8 8 8 11
 11 11 11 11 16 93 93 93 93 93 93 12 12 12 12 12 12 12 22 8
 8 8 8 11 11 11 11 11 16 16 93 93 93 93 93 93 93 12 21 21
 21 21 21 21 51 51 22 22 11 11 11 11 11 16 93 93 93 93 93 93
 93 93 21 21 21 21 21 21 21 51 51 51 29 29 11 11 11 6 6 93
 93 93 93 93 93 93 21 21 21 21 21 21 21 21 51 51 51 29 29 29
 6 6 6 6 6 93 93 93 93 93 93 21 21 21 21 21 21 21 21 51
 51 29 29 29 29 6 6 6 6 6 6 93 93 93 93 93 21 21 21 21
 21 21 21 21 21 51 29 29 29 29 6 6 6 6 6 6 93 93 93 93
 21 21 21 21 21 21 21 21 21 21 29 29 29 29 29 6 6 6 6 6
 6 6 93 93 70 70 70 21 21 21 21 21 21 21 21 5 5 5 29 29
 6 6 6 6 6 27 27 27 70 70 70 70 70 70 21 21 21 21 21 49
 49 5 5 5 5 6 6 27 27 27 27 27 27 70 70 70 70 70 70 70
 70 71 71 71 71 71 71 5 79 79 79 27 27 27 27 27 27 27 70 70
 70 70 70 70 70 70 71 71 71 71 71 71 71 79 79 79 27 27 27 27
 27 27 27 70 70 70 70 70 70 70 71 71 71 71 71 71 71 71 79 79
 79 79 27 27 27 27 27 27 69 70 70 70 70 70 71 71 71 71 71 71
 71 71 71 79 79 80 80 80 27 27 27 45 45 69 64 64 70 70 70 71
 71 71 71 71 71 71 71 71 80 80 80 80 80 80 27 45 45 45 45 64
 64 64 70 71 71 71 71 71 71 71 71 71 71 80 80 80 80 80 80 80
 45 45 45 45 45 68 64 67 71 71 71 71 71 71 71 71 71 71 80 80
 80 80 80 80 80 45 45 45 39 39 68 68 67 13 13 13 71 71 71 71
 71 71 71 80 80 80 80 80 80 80 45 45 39 39 39 68 68 67 13 13
 13 13 13 71 71 71 71 80 80 80 80 80 80 80 80 10 10 39 39 39
 68 68 67 13 13 13 13 13 13 13 8 8 8 8 8 80 80 80 80 80
 72 72 39 39 39 12 12 12 13 13 13 13 13 13 8 8 8 8 8 8
 8 80 80 80 80 72 72 72 72 12 12 12 12 12 12 13 13 13 13 8
 8 8 8 8 8 8 8 11 80 30 72 72 72 72 12 12 12 12 12 12
 12 12 13 8 8 8 8 8 8 8 8 11 11 11 16 72 72 72 72 12
 12 12 12 12 12 12 12 12 8 8 8 8 8 8 8 11 11 11 11 16
 16 16 93 93 12 12 12 12 12 12 12 12 12 22 8 8 8 8 8 8
 11 11 16 16 16 16 93 93 93 93 12 12 12 12 12 12 12 12 22 8
 8 8 8 8 11 11 16 16 16 16 16 93 93 93 93 93 12 12 12 12
 12 12 12 22 22 22 22 22 11 11 11 16 16 16 16 93 93 93 93 93
 93 93 12 12 12 12 21 21 22 22 22 22 22 22 11 11 16 16 16 16
 93 93 93 93 93 93 93 21 21 21 21 21 21 21 22 22 29 29 29 29
 16 16 16 16 93 93 93 93 93 93 93 93 21 21 21 21 21 21 21 51
 29 29 29 29 29 29 6 16 6 93 93 93 93 93 93 93 93 21 21 21
 21 21 21 21 21 29 29 29 29 29 6 6 6 6 93 93 93 93 93 93
 93 21 21 21 21 21 21 21 21 21 29 29 29 29 29 6 6 6 6 6
 93 93 93 93 93 93 21 21 21 21 21 21 21 21 21 29 29 29 29 29
 29 20 20 20 20 27 93 93 93 70 70 70 70 21 21 21 21 21 21 21
 29 29 29 29 29 29 20 20 20 27 27 27 27 70 70 70 70 70 70 70
 21 21 21 21 71 29 29 29 29 29 27 27 27 27 27 27 27 27 70 70
 70 70 70 70 70 70 70 71 71 71 71 71 79 79 79 79 27 27 27 27
 27 27 27 70 70 70 70 70 70 70 70 71 71 71 71 71 71 79 79 79
 79 27 27 27 27 27 27 27 27 70 70 70 70 70 70 71 71 71 71 71
 71 71 79 79 79 79 79 27 27 27 27 27 69 69 69 70 70 70 70 70
 71 71 71 71 71 71 71 79 79 79 79 80 27 27 27 27 45 69 69 69
 70 70 70 70 71 71 71 71 71 71 71 71 71 79 80 80 80 80 80 27
 45 45 45 69 69 70 70 70 13 71 71 71 71 71 71 71 71 71 80 80
 80 80 80 80 80 45 45 45 45 45 68 67 67 13 13 71 71 71 71 71
 71 71 71 80 80 80 80 80 80 80 45 45 45 45 68 68 68 67 13 13
 13 13 71 71 71 71 71 71 80 80 80 80 80 80 80 45 45 45 45 68
 68 68 67 13 13 13 13 13 13 71 71 71 80 80 80 80 80 80 80 80
 45 45 45 68 68 68 68 67 13 13 13 13 13 13 13 8 8 8 8 8
 80 80 80 80 80 72 72 88 68 68 68 12 13 13 13 13 13 13 13 13
 8 8 8 8 8 8 80 80 80 88 72 72 88 88 12 12 12 12 12 12
 13 13 13 13 8 8 8 8 8 8 8 8 16 16 88 72 72 72 72 12
 12 12 12 12 12 12 12 13 13 8 8 8 8 8 8 8 16 16 16 16
 72 72 88 88 12 12 12 12 12 12 12 12 12 8 8 8 8 8 8 8
 8 16 16 16 16 16 88 88 37 37 12 12 12 12 12 12 12 12 22 22
 22 22 8 8 8 16 16 16 16 16 16 16 93 93 37 37 12 12 12 12
 12 12 12 22 22 22 22 22 22 22 16 16 16 16 16 16 93 93 93 93
 37 12 12 12 12 12 12 22 22 22 22 22 22 22 22 16 16 16 16 16
 16 93 93 93 93 93 93 12 12 12 12 12 22 22 22 22 22 22 22 22
 16 16 16 16 16 93 93 93 93 93 93 93 93 21 21 21 21 21 22 22
 22 22 22 22 29 16 16 16 16 16 93 93 93 93 93 93 93 93 21 21
 21 21 21 21 22 29 29 29 29 29 29 16 16 16 93 93 93 93 93 93
 93 93 21 21 21 21 21 21 21 29 29 29 29 29 29 29 20 20 20 93
 93 93 93 93 93 93 93 21 21 21 21 21 21 21 21 29 29 29 29 29
 20 20 20 20 20 20 93 93 93 93 93 70 70 21 21 21 21 21 21 21
 29 29 29 29 29 20 20 20 20 20 20 20 93 93 70 70 70 70 70 21
 21 21 21 21 29 29 29 29 29 29 20 20 20 20 20 27 27 27 70 70
 70 70 70 70 70 70 21 21 21 29 29 29 29 29 29 20 20 20 27 27
 27 27 27 70 70 70 70 70 70 70 70 70 71 71 71 71 71 79 79 79
 79 27 27 27 27 27 27 27 70 70 70 70 70 70 70 70 71 71 71 71
 71 71 79 79 79 79 79 27 27 27 27 27 27 70 70 70 70 70 70 70
 70 71 71 71 71 71 71 79 79 79 79 79 27 27 27 27 27 69 69 69
 70 70 70 70 70 71 71 71 71 71 71 71 79 79 79 79 79 27 27 27
 27 45 69 69 69 70 70 70 70 71 71 71 71 71 71 71 71 71 79 79
 80 80 80 27 27 45 45 45 69 69 69 70 70 13 13 71 71 71 71 71
 71 71 71 80 80 80 80 80 80 45 45 45 45 45 69 67 67 67 13 13
 13 13 71 71 71 71 71 71 80 80 80 80 80 80 45 45 45 45 45 68
 68 67 67 13 13 13 13 13 13 71 71 71 71 80 80 80 80 80 80 45
 45 45 45 45 68 68 68 67 67 13 13 13 13 13 13 13 71 8 80 80
 80 80 80 80 80 88 88 45 68 68 68 67 67 13 13 13 13 13 13 13
 13 8 8 8 8 80 80 80 80 88 88 88 88 88 68 68 67 67 13 13
 13 13 13 13 13 13 8 8 8 8 8 80 80 88 88 88 88 88 88 88
 12 12 12 12 13 13 13 13 13 13 8 8 8 8 8 8 8 16 16 88
 88 88 88 88 88 12 12 12 12 12 12 12 13 13 13 8 8 8 8 8
 8 16 16 16 88 88 88 88 88 37 12 12 12 12 12 12 12 22 22 22
 8 8 8 8 8 16 16 16 16 16 16 88 88 37 37 37 12 12 12 12
 12 12 22 22 22 22 22 22 22 22 16 16 16 16 16 16 16 93 37 37
 37 37 12 12 7 7 7 22 22 22 22 22 22 22 22 16 16 16 16 16
 16 16 93 93 37 37 37 12 12 7 7 7 22 22 22 22 22 22 22 22
 16 16 16 16 16 16 93 93 93 93 93 37 12 12 7 7 22 22 22 22
 22 22 22 22 22 16 16 16 16 16 93 93 93 93 93 93 93 93 21 21
 21 21 22 22 22 22 22 22 22 22 16 16 16 16 16 93 93 93 93 93
 93 93 93 21 21 21 21 21 22 22 22 29 29 29 29 16 16 16 16 16
 93 93 93 93 93 93 93 93 21 21 21 21 21 21 22 29 29 29 29 29
 20 20 20 20 20 20 93 93 93 93 93 93 93 21 21 21 21 21 21 29
 29 29 29 29 29 20 20 20 20 20 20 93 93 93 93 93 70 70 70 21
 21 21 21 21 25 29 29 29 29 29 20 20 20 20 20 20 20 93 93 70
 70 70 70 70 70 21 21 21 25 25 25 29 29 29 29 20 20 20 20 20
 20 20 93 70 70 70 70 70 70 70 70 21 21 25 25 25 29 29 29 29
 20 20 20 20 20 27 27 27 70 70 70 70 70 70 70 70 70 70 71 71
 25 79 79 79 79 79 20 20 27 27 27 27 27 70 70 70 70 70 70 70
 70 71 71 71 71 71 79 79 79 79 79 79 27 27 27 27 27 27 70 70
 70 70 70 70 70 70 71 71 71 71 71 71 79 79 79 79 79 27 27 27
 27 27 69 69 69 70 70 70 70 70 71 71 71 71 71 71 71 79 79 79
 79 79 27 27 27 27 27 69 69 69 70 70 70 13 13 13 71 71 71 71
 71 71 71 79 79 79 80 80 27 27 45 45 45 69 69 67 70 13 13 13
 13 13 71 71 71 71 71 71 80 80 80 80 80 80 45 45 45 45 45 45
 67 67 67 13 13 13 13 13 13 71 71 71 71 80 80 80 80 80 80 45
 45 45 45 45 68 67 67 67 67 13 13 13 13 13 13 71 71 71 80 80
 80 80 80 80 45 45 45 45 45 68 67 67 67 67 13 13 13 13 13 13
 13 13 8 80 80 80 80 80 80 80 88 88 88 88 68 67 67 67 67 13
 13 13 13 13 13 13 13 8 8 8 80 80 80 80 88 88 88 88 88 88
 67 67 67 13 13 13 13 13 13 13 13 8 8 8 8 8 15 16 88 88
 88 88 88 88 88 12 12 12 12 13 13 13 13 13 13 13 8 8 8 8
 8 16 16 16 88 88 88 88 88 88 12 12 12 12 12 12 13 13 13 22
 22 22 8 8 8 16 16 16 16 88 88 88 88 88 37 37 12 12 12 12
 12 13 13 22 22 22 22 22 22 8 16 16 16 16 16 16 88 88 37 37
 37 37 12 12 7 7 7 22 22 22 22 22 22 22 22 16 16 16 16 16
 16 16 88 37 37 37 37 37 7 7 7 7 22 22 22 22 22 22 22 22
 16 16 16 16 16 16 16 93 37 37 37 37 37 7 7 7 7 22 22 22
 22 22 22 22 22 16 16 16 16 16 16 93 93 93 93 37 37 37 7 7
 7 7 22 22 22 22 22 22 22 22 16 16 16 16 16 16 93 93 93 93
 93 93 93 7 7 7 22 22 22 22 22 22 22 22 22 16 16 16 16 16
 93 93 93 93 93 93 93 93 93 21 21 22 22 22 22 22 22 14 14 14
 16 16 16 16 16 93 93 93 93 93 93 93 93 21 21 21 21 21 22 22
 22 29 29 29 29 20 20 20 20 20 20 93 93 93 93 93 93 93 21 21
 21 21 21 22 22 29 29 29 29 29 20 20 20 20 20 20 20 93 93 93
 93 70 70 70 70 70 21 21 25 25 25 29 29 29 29 20 20 20 20 20
 20 20 93 93 93 70 70 70 70 70 70 21 21 25 25 25 25 29 29 29
 20 20 20 20 20 20 20 20 70 70 70 70 70 70 70 70 70 21 25 25
 25 25 29 29 20 20 20 20 20 20 20 20 20 70 70 70 70 70 70 70
 70 70 70 25 25 25 25 79 79 79 20 20 20 20 20 27 27 27 70 70
 70 70 70 70 70 70 70 71 71 71 71 79 79 79 79 79 79 27 27 27
 27 27 27 70 70 70 70 70 70 70 70 71 71 71 71 71 71 79 79 79
 79 79 27 27 27 27 27 69 69 70 70 70 70 70 70 13 71 71 71 71
 71 71 79 79 79 79 79 27 27 27 27 27 69 69 69 70 70 70 13 13
 13 13 13 71 71 71 71 71 79 79 79 80 80 27 27 45 45 45 69 4
 67 13 13 13 13 13 13 13 13 71 71 71 71 74 80 80 80 80 80 34
 45 45 45 45 67 67 67 67 13 13 13 13 13 13 13 71 71 71 80 80
 80 80 80 80 45 45 45 45 45 67 67 67 67 67 13 13 13 13 13 13
 13 13 13 80 80 80 80 80 80 45 45 45 45 67 67 67 67 67 67 13
 13 13 13 13 13 13 13 13 78 78 15 15 15 15 15 88 88 88 88 67
 67 67 67 67 13 13 13 13 13 13 13 13 8 8 78 15 15 15 15 88
 88 88 88 88 88 67 67 67 13 13 13 13 13 13 13 13 13 22 8 15
 15 15 15 15 88 88 88 88 88 88 67 12 12 13 13 13 13 13 13 13
 13 22 22 8 33 16 16 16 16 88 88 88 88 88 88 12 12 12 12 12
 13 13 13 13 22 22 22 22 22 33 16 16 16 16 88 88 88 88 88 37
 37 37 12 12 12 12 13 13 22 22 22 22 22 22 22 16 16 16 16 16
 16 88 88 37 37 37 37 37 7 7 7 7 22 22 22 22 22 22 22 22
 16 16 16 16 16 16 16 88 37 37 37 37 37 7 7 7 63 22 22 22
 22 22 22 22 22 16 16 16 16 16 16 16 93 37 37 37 37 37 7 7
 7 7 22 22 22 22 22 22 22 22 16 16 16 16 16 16 16 93 93 93
 37 37 37 7 7 7 22 22 22 22 22 22 22 22 22 16 16 16 16 16
 16 93 93 93 93 93 93 93 44 7 7 22 22 22 22 22 22 14 14 22
 16 16 16 16 16 62 93 93 93 93 93 93 93 93 44 44 22 22 22 22
 22 14 14 14 14 62 62 62 62 62 62 93 93 93 93 93 93 93 93 44
 65 65 22 22 22 22 14 14 14 14 62 62 62 62 62 20 93 93 93 93
 93 93 93 93 65 65 65 65 22 22 29 14 14 14 14 62 20 20 20 20
 20 20 93 93 18 18 18 70 70 70 65 65 65 65 25 25 25 29 29 20
 20 20 20 20 20 20 20 93 93 18 18 18 70 70 70 70 65 65 25 25
 25 25 29 29 20 20 20 20 20 20 20 20 20 18 18 18 70 70 70 70
 70 65 65 65 25 25 25 29 29 20 20 20 20 20 20 20 20 20 70 70
 70 70 70 70 70 70 70 65 65 25 25 74 74 74 74 20 20 20 20 20
 20 20 20 70 70 70 70 70 70 70 70 70 26 26 26 74 74 74 74 74
 74 20 20 20 20 27 27 4 4 4 70 70 70 70 70 70 13 26 26 26
 74 74 74 74 74 74 79 27 27 27 27 27 4 4 4 4 4 4 70 13
 13 13 13 13 71 74 74 74 74 74 74 60 60 27 27 34 4 4 4 4
 4 4 4 13 13 13 13 13 13 13 71 74 74 74 74 74 60 34 34 34
 34 4 4 4 4 4 4 4 13 13 13 13 13 13 13 13 74 74 74 74
 74 34 34 34 34 45 45 4 4 4 4 67 67 13 13 13 13 13 13 13
 13 13 74 74 74 80 34 34 34 34 45 45 45 4 4 67 67 67 67 13
 13 13 13 13 13 13 13 74 78 78 15 80 34 34 34 45 88 45 67 67
 67 67 67 67 13 13 13 13 13 13 13 13 13 78 78 15 15 15 15 32
 88 88 88 88 67 67 67 67 67 13 13 13 13 13 13 13 13 13 78 78
 15 15 15 15 32 88 88 88 88 88 67 67 67 13 13 13 13 13 13 13
 13 13 22 15 15 15 15 15 15 88 88 88 88 88 88 87 87 87 87 13
 13 13 13 13 13 22 22 22 33 33 33 15 15 16 88 88 88 88 88 88
 87 87 87 87 87 13 13 13 13 22 22 22 22 33 33 33 16 16 16 88
 88 88 88 88 37 37 87 87 87 7 12 13 22 22 22 22 22 22 22 33
 16 16 16 16 16 16 88 88 37 37 37 87 87 63 63 63 63 22 22 22
 22 22 22 22 22 16 16 16 16 16 16 16 88 37 37 37 37 63 63 63
 63 63 22 22 22 22 22 22 22 22 16 16 16 16 16 16 16 16 37 37
 37 37 37 63 63 63 63 22 22 22 22 22 22 22 22 16 16 16 16 16
 16 16 93 93 37 37 44 44 44 63 63 63 22 22 22 22 22 22 22 22
 16 16 16 16 16 62 93 93 93 93 93 44 44 44 44 44 22 22 22 22
 22 22 14 14 22 62 62 62 62 62 62 62 93 93 93 93 44 44 44 44
 44 65 65 22 22 22 14 14 14 14 62 62 62 62 62 62 62 93 93 93
 93 44 44 44 44 65 65 65 65 22 22 14 14 14 14 62 62 62 62 62
 62 62 93 93 93 18 44 44 44 65 65 65 65 65 65 22 14 14 14 14
 62 62 62 62 62 62 62 62 93 18 18 18 18 65 65 65 65 65 65 65
 25 14 14 14 62 62 62 62 62 62 20 62 62 18 18 18 18 18 70 65
 65 65 65 65 65 25 25 29 29 62 62 20 20 20 20 20 20 20 18 18
 18 18 18 70 65 65 65 65 65 65 25 74 74 74 74 20 20 20 20 20
 20 20 20 4 18 18 18 70 70 70 65 65 65 65 65 74 74 74 74 74
 74 20 20 20 20 20 20 4 4 4 18 70 70 70 70 70 26 26 26 26
 74 74 74 74 74 74 20 20 20 20 27 4 4 4 4 4 4 4 4 4
 70 26 26 26 26 74 74 74 74 74 74 60 60 20 27 4 4 4 4 4
 4 4 4 4 4 13 13 26 26 26 74 74 74 74 74 74 60 60 60 34
 34 4 4 4 4 4 4 4 4 13 13 13 13 13 13 74 74 74 74 74
 60 60 60 34 34 34 4 4 4 4 4 4 4 13 13 13 13 13 13 13
 13 74 74 74 74 60 60 34 34 34 34 34 4 4 4 4 4 4 13 13
 13 13 13 13 13 13 74 74 74 74 60 34 34 34 34 34 34 4 4 4
 4 67 67 13 13 13 13 13 13 13 13 50 74 78 78 78 34 34 34 34
 32 88 4 4 4 67 67 67 67 13 13 13 13 13 13 50 50 50 78 78
 78 15 15 32 32 32 88 88 88 67 67 67 67 67 13 13 13 13 13 13
 13 50 50 78 78 15 15 15 15 32 32 88 88 88 87 87 87 87 87 13
 13 13 13 13 13 13 13 22 15 15 15 15 15 32 32 88 88 88 88 87
 87 87 87 87 87 13 13 13 13 13 22 22 22 33 33 15 15 15 32 32
 88 88 88 88 87 87 87 87 87 87 87 13 13 13 22 22 22 22 33 33
 33 16 16 16 16 88 88 88 88 87 87 87 87 87 87 87 13 22 22 22
 22 22 22 22 33 33 16 16 16 16 16 16 88 37 87 87 87 87 87 63
 63 63 22 22 22 22 22 22 22 22 16 16 16 16 16 16 16 16 37 37
 37 87 87 63 63 63 63 22 22 22 22 22 22 22 22 16 16 16 16 16
 16 16 16 37 44 44 44 44 63 63 63 63 22 22 22 22 22 22 22 22
 16 16 16 16 16 16 16 93 44 44 44 44 44 44 44 44 44 22 22 22
 22 22 22 22 22 16 16 16 16 16 62 62 93 44 44 44 44 44 44 44
 44 65 22 22 22 22 22 14 14 22 62 62 62 62 62 62 62 93 44 44
 44 44 44 44 44 44 65 65 65 22 22 14 14 14 14 62 62 62 62 62
 62 62 62 93 44 44 44 44 44 44 65 65 65 65 65 22 14 14 14 14
 62 62 62 62 62 62 62 62 93 93 18 44 44 44 65 65 65 65 65 65
 65 14 14 14 62 62 62 62 62 62 62 62 62 62 18 18 18 44 44 65
 65 65 65 65 65 65 14 14 14 62 62 62 62 62 62 62 62 62 18 18
 18 18 18 65 65 65 65 65 65 65 65 74 14 74 62 62 62 62 62 62
 62 62 62 18 18 18 18 18 65 65 65 65 65 65 65 74 74 74 74 74
 62 62 62 62 62 20 20 4 4 18 18 18 70 65 65 65 65 65 65 65
 74 74 74 74 74 74 62 62 62 62 20 4 4 4 4 4 4 4 4 65
 65 65 65 26 74 74 74 74 74 74 74 74 62 20 62 4 4 4 4 4
 4 4 4 4 4 9 9 26 26 26 74 74 74 74 74 74 60 60 60 34
 4 4 4 4 4 4 4 4 4 4 13 13 13 26 74 74 74 74 74 74
 60 60 60 60 34 34 4 4 4 4 4 4 4 4 13 13 13 13 13 74
 74 74 74 74 74 60 60 60 34 34 34 4 4 4 4 4 4 4 4 13
 13 13 13 13 13 74 74 74 74 74 60 60 34 34 34 34 34 4 4 4
 4 4 4 4 13 13 13 13 13 13 13 74 74 74 74 60 34 34 34 34
 34 34 4 4 4 4 4 4 13 13 13 13 13 13 50 50 50 50 74 78
 60 34 34 34 34 32 32 4 4 4 4 4 67 13 13 13 13 13 13 50
 50 50 50 78 78 15 15 32 34 32 32 32 32 4 4 87 87 87 13 13
 13 13 13 13 50 50 50 50 78 78 15 15 15 32 32 32 32 32 87 87
 87 87 87 87 87 13 13 13 13 13 13 50 50 15 15 15 15 32 32 32
 32 32 88 88 87 87 87 87 87 87 87 13 13 13 13 22 22 22 33 33
 32 32 32 32 32 32 88 88 88 87 87 87 87 87 87 87 13 13 13 22
 22 22 22 33 33 33 32 32 32 32 16 88 88 88 87 87 87 87 87 87
 87 87 22 22 22 22 22 22 22 33 33 16 16 16 16 16 16 46 87 87
 87 87 87 87 87 87 87 22 22 22 22 22 22 22 22 16 16 16 16 16
 16 16 46 44 44 44 44 87 44 63 63 63 22 22 22 22 22 22 22 22
 16 16 16 16 16 16 46 46 44 44 44 44 44 44 44 44 44 22 22 22
 22 22 22 22 22 22 16 16 16 16 16 62 44 44 44 44 44 44 44 44
 44 44 65 22 22 22 22 22 22 22 22 62 62 62 62 62 62 62 44 44
 44 44 44 44 44 44 65 65 65 22 22 22 22 22 22 62 62 62 62 62
 62 62 62 44 44 44 44 44 44 44 44 65 65 65 65 22 22 14 14 14
 62 62 62 62 62 62 62 62 44 44 44 44 44 44 44 65 65 65 65 65
 65 14 14 14 62 62 62 62 62 62 62 62 62 44 44 44 44 44 44 65
 65 65 65 65 65 65 14 14 14 62 62 62 62 62 62 62 62 62 44 44
 44 44 44 44 65 65 65 65 65 65 65 65 14 62 62 62 62 62 62 62
 62 62 62 18 18 18 44 44 65 65 65 65 65 65 65 65 74 74 74 62
 62 62 62 62 62 62 62 62 18 18 18 44 44 65 65 65 65 65 65 65
 74 74 74 74 74 62 62 62 62 62 62 62 4 4 4 4 4 70 65 65
 65 65 65 65 74 74 74 74 74 74 74 62 62 62 62 62 4 4 4 4
 4 4 4 4 9 9 9 9 9 74 74 74 74 74 74 74 74 62 62 62
 4 4 4 4 4 4 4 4 4 9 9 9 9 9 74 74 74 74 74 74
 74 60 60 60 34 4 4 4 4 4 4 4 4 4 9 9 9 9 9 74
 74 74 74 74 74 60 60 60 60 34 34 4 4 4 4 4 4 4 4 4
 13 13 13 74 74 74 74 74 74 74 60 60 60 34 34 34 4 4 4 4
 4 4 4 4 13 13 13 13 13 74 74 74 74 74 74 60 60 34 34 34
 34 34 4 4 4 4 4 4 4 13 13 13 13 13 13 50 74 74 74 74
 60 34 34 34 34 34 34 4 4 4 4 4 4 4 13 13 13 13 13 50
 50 50 74 74 74 35 34 34 34 34 32 32 4 4 4 4 4 4 4 13
 13 13 13 50 50 50 50 50 74 35 35 35 32 32 32 32 32 32 4 87
 87 87 87 87 13 13 13 13 13 50 50 50 50 78 35 35 32 32 32 32
 32 32 32 32 87 87 87 87 87 87 87 13 13 13 50 50 50 50 50 32
 32 32 32 32 32 32 32 32 87 87 87 87 87 87 87 87 13 13 13 13
 50 22 22 33 33 32 32 32 32 32 32 32 88 87 87 87 87 87 87 87
 87 87 87 13 22 22 22 22 33 33 32 32 32 32 32 32 32 88 87 87
 87 87 87 87 87 87 87 87 22 22 22 22 22 22 33 32 32 32 32 32
 46 46 46 46 87 87 87 87 87 87 87 87 81 81 81 81 81 22 22 22