# vtk DataFile Version 2.0
Data set from ImportExport Version 6.5.141.ec284b7a5
ASCII

DATASET RECTILINEAR_GRID
DIMENSIONS 26 26 26
X_COORDINATES 26 float
-3.000000 3.000000 9.000000 15.000000 21.000000 27.000000 33.000000 39.000000 45.000000 51.000000 57.000000 63.000000 69.000000 75.000000 81.000000 87.000000 93.000000 99.000000 105.000000 111.000000 117.000000 
123.000000 129.000000 135.000000 141.000000 147.000000 
Y_COORDINATES 26 float
-3.000000 3.000000 9.000000 15.000000 21.000000 27.000000 33.000000 39.000000 45.000000 51.000000 57.000000 63.000000 69.000000 75.000000 81.000000 87.000000 93.000000 99.000000 105.000000 111.000000 117.000000 
123.000000 129.000000 135.000000 141.000000 147.000000 
Z_COORDINATES 26 float
-3.000000 3.000000 9.000000 15.000000 21.000000 27.000000 33.000000 39.000000 45.000000 51.000000 57.000000 63.000000 69.000000 75.000000 81.000000 87.000000 93.000000 99.000000 105.000000 111.000000 117.000000 
123.000000 129.000000 135.000000 141.000000 147.000000 
CELL_DATA 15625
SCALARS FeatureIds int 1
LOOKUP_TABLE default
 89 89 89 52 52 52 83 83 83 73 73 73 73 73 73 48 48 48 48 48
 48 48 48 48 48 89 89 52 52 52 52 109 109 109 95 95 73 73 73 73
 48 48 48 48 48 48 48 48 48 48 89 52 52 52 52 52 109 109 109 95
 95 95 73 73 73 48 48 48 48 48 48 48 48 48 48 89 52 52 52 52
 52 109 109 109 109 95 95 95 73 79 79 79 79 79 79 48 48 48 48 12
 12 52 52 52 52 52 109 109 109 109 109 95 95 95 79 79 79 79 79 79
 79 79 79 12 12 12 12 52 52 109 109 109 109 109 109 109 93 93 93 79
 79 79 79 79 79 79 79 79 12 12 12 12 12 109 109 109 109 109 109 109
 109 93 93 93 79 79 79 79 79 79 79 79 79 12 12 12 17 17 17 109
 109 109 109 109 109 93 93 93 93 79 79 79 79 79 79 79 79 79 12 12
 17 17 17 17 109 109 109 109 109 109 93 93 93 93 79 79 79 79 79 79
 79 79 79 12 12 17 17 17 17 109 109 109 109 109 109 80 80 80 94 94
 94 79 79 79 79 79 79 79 12 17 17 17 17 17 17 44 44 44 44 80
 80 80 80 94 94 94 94 79 79 79 79 79 79 17 17 28 28 28 28 44
 44 44 44 44 80 80 80 80 94 94 94 94 94 79 42 79 79 65 65 17
 28 28 28 28 44 44 44 44 44 80 80 80 80 107 94 94 94 94 94 42
 65 65 65 65 65 65 65 28 28 44 44 44 44 107 107 107 107 107 107 107
 94 94 94 94 65 65 65 65 65 65 65 65 65 103 103 103 103 107 107 107
 107 107 107 107 107 107 94 94 65 65 65 65 65 65 65 65 65 65 103 103
 103 103 107 107 107 107 107 107 107 107 107 107 107 65 65 65 65 65 65 65
 65 65 65 78 78 103 78 107 107 107 107 107 107 107 107 107 107 107 65 65
 65 65 65 65 65 65 65 78 78 78 78 78 78 107 107 107 107 107 107 107
 107 107 107 97 97 97 65 65 65 65 65 82 82 78 78 78 78 78 107 107
 107 107 107 107 107 107 107 97 97 97 97 97 97 56 56 56 56 82 78 78
 78 78 78 78 107 107 107 107 107 107 107 2 97 97 97 97 97 97 56 56
 56 82 82 78 78 78 78 78 78 107 107 107 107 107 2 2 2 48 97 97
 97 97 97 56 56 56 82 82 78 78 78 78 78 49 49 49 49 107 2 2
 2 48 48 48 48 48 48 97 56 56 89 82 82 78 78 78 78 49 49 49
 49 49 49 2 2 48 48 48 48 48 48 48 48 48 48 89 89 89 78 78
 78 78 49 49 49 49 49 49 48 48 48 48 48 48 48 48 48 48 48 48
 89 89 89 89 78 78 49 49 49 49 49 49 49 48 48 48 48 48 48 48
 48 48 48 48 48 89 89 89 89 89 89 83 83 83 83 73 73 73 73 73
 48 48 48 48 48 48 48 48 48 48 89 89 89 89 52 52 109 109 109 109
 95 73 73 73 73 48 48 48 48 48 48 48 48 48 89 89 89 89 89 52
 109 109 109 109 109 95 95 95 73 73 48 48 48 48 48 48 48 48 48 89
 89 89 89 52 109 109 109 109 109 109 95 95 95 73 79 79 79 79 79 79
 48 48 48 48 89 12 89 52 52 109 109 109 109 109 109 95 95 95 95 79
 79 79 79 79 79 79 79 79 12 12 12 12 52 109 109 109 109 109 109 109
 109 109 93 93 79 79 79 79 79 79 79 79 79 12 12 12 12 17 109 109
 109 109 109 109 109 109 109 93 93 79 79 79 79 79 79 79 79 79 12 12
 12 17 17 17 109 109 109 109 109 109 109 109 93 93 79 79 79 79 79 79
 79 79 79 12 12 17 17 17 17 109 109 109 109 109 109 109 14 14 14 79
 79 79 79 79 79 79 79 79 12 17 17 17 17 17 109 109 109 109 109 109
 14 14 14 14 79 79 79 79 79 79 79 79 79 17 17 17 17 17 17 17
 44 44 44 44 80 80 80 80 80 94 94 79 79 79 79 79 79 17 17 17
 28 28 28 28 44 44 44 44 44 80 80 80 80 80 94 94 94 94 79 42
 79 79 65 65 28 28 28 28 28 44 44 44 44 44 80 80 80 80 80 94
 94 94 94 94 42 65 65 65 65 65 65 28 28 28 44 44 44 44 44 107
 80 80 80 107 107 94 94 94 65 65 65 65 65 65 65 65 65 65 65 44
 44 44 44 107 107 107 107 107 107 107 107 94 108 108 65 65 65 65 65 65
 65 65 65 103 103 103 103 107 107 107 107 107 107 107 107 107 107 108 108 65
 65 65 65 65 65 65 65 65 78 78 78 78 107 107 107 107 107 107 107 107
 107 107 108 108 65 65 65 65 65 65 65 65 78 78 78 78 78 78 107 107
 107 107 107 107 107 107 107 108 108 108 65 65 65 65 65 65 65 78 78 78
 78 78 78 78 107 107 107 107 107 107 107 2 108 97 97 97 97 97 56 56
 56 78 78 78 78 78 78 78 78 107 107 107 107 107 2 2 2 2 97 97
 97 97 97 56 56 56 78 78 78 78 78 78 78 78 78 107 107 107 2 2
 2 2 2 48 97 97 97 97 56 56 56 78 78 78 78 78 78 78 78 78
 49 49 2 2 2 2 2 48 48 48 48 48 48 56 56 89 89 78 78 78
 78 78 78 49 49 49 49 2 2 2 2 2 48 48 48 48 48 48 48 48
 89 89 89 89 78 78 78 49 49 49 49 49 2 2 2 48 48 48 48 48
 48 48 48 48 48 89 89 89 89 89 78 49 49 49 49 49 49 48 48 48
 48 48 48 48 48 48 48 48 48 48 89 89 89 89 89 89 83 83 83 83
 77 77 77 77 77 48 48 48 48 48 48 48 48 89 89 89 89 89 89 89
 89 83 83 83 83 95 77 77 77 77 48 48 48 48 48 48 48 48 89 89
 89 89 89 89 89 109 109 109 109 109 95 95 77 77 77 77 48 48 48 48
 48 48 48 89 89 89 89 89 89 109 109 109 109 109 109 95 95 95 77 77
 79 79 79 79 48 48 48 48 89 89 89 89 89 89 109 109 109 109 109 109
 109 95 95 95 79 79 79 79 79 79 79 79 64 89 89 89 89 109 109 109
 109 109 109 109 109 109 109 95 79 79 79 79 79 79 79 79 79 64 64 12
 12 17 109 109 109 109 109 109 109 109 109 109 93 79 79 79 79 79 79 79
 79 79 79 12 12 17 17 17 85 85 109 109 109 109 109 109 109 14 14 79
 79 79 79 79 79 79 79 79 12 12 17 17 17 85 85 109 109 109 109 109
 14 14 14 14 79 79 79 79 79 79 79 79 43 17 17 17 17 17 17 85
 109 109 109 109 109 14 14 14 14 14 79 79 79 79 79 79 79 43 17 17
 17 17 17 85 85 44 44 44 44 80 80 14 14 14 94 94 79 79 79 79
 79 106 43 17 17 28 28 28 28 44 44 44 44 44 80 80 80 80 80 94
 94 94 79 79 106 106 106 65 65 28 28 28 28 28 44 44 44 44 44 80
 80 80 80 80 94 94 94 94 108 106 106 65 65 65 65 65 28 28 28 44
 44 44 44 44 44 80 80 80 107 107 94 94 108 108 108 65 65 65 65 65
 65 65 65 65 44 44 44 44 44 107 107 107 107 107 107 107 108 108 108 108
 65 65 65 65 65 65 65 65 65 103 103 44 44 107 107 107 107 107 107 107
 107 108 108 108 108 65 65 65 65 65 65 65 65 78 78 78 78 78 107 107
 107 107 107 107 107 107 108 108 108 108 108 65 65 65 65 65 65 78 78 78
 78 78 78 107 107 107 107 107 107 107 107 108 108 108 108 108 65 65 65 65
 65 65 78 78 78 78 78 78 78 107 107 107 107 107 2 2 2 108 108 108
 108 65 65 65 65 56 78 78 78 78 78 78 78 78 78 107 107 107 2 2
 2 2 2 108 108 108 97 97 56 65 55 78 78 78 78 78 78 78 78 78
 107 107 2 2 2 2 2 2 2 48 48 48 48 56 56 89 89 78 78 78
 78 78 78 78 78 49 2 2 2 2 2 2 2 48 48 48 48 48 48 56
 89 89 89 78 78 78 78 78 78 49 49 2 2 2 2 2 2 2 48 48
 48 48 48 48 89 89 89 89 89 78 78 78 78 49 49 49 49 2 2 2
 2 2 48 48 48 48 48 48 48 89 89 89 89 89 89 89 78 49 49 49
 60 60 77 77 2 48 48 48 48 48 48 48 48 48 89 89 89 89 89 89
 89 83 83 83 83 60 77 77 77 77 77 48 48 48 48 48 48 48 89 89
 89 89 89 89 89 89 83 83 83 83 77 77 77 77 77 77 48 48 48 48
 48 48 89 89 89 89 89 89 89 89 109 83 83 109 109 109 77 77 77 77
 77 48 48 48 48 48 48 89 89 89 89 89 89 89 89 109 109 109 109 109
 109 109 77 77 77 79 79 79 79 48 48 96 89 89 89 89 89 89 109 109
 109 109 109 109 109 109 109 95 77 79 79 79 79 79 79 79 64 64 64 89
 89 89 89 109 109 109 109 109 109 109 109 109 109 79 79 79 79 79 79 79
 79 64 64 64 64 89 89 85 109 109 109 109 109 109 109 109 109 109 79 79
 79 79 79 79 79 79 64 64 64 64 17 85 85 85 85 109 109 109 109 109
 109 14 14 14 79 79 79 79 79 79 79 79 43 43 43 17 17 85 85 85
 109 109 109 109 109 14 14 14 14 86 79 79 79 79 79 79 43 43 43 43
 17 17 85 85 85 85 109 109 109 14 14 14 14 14 86 86 86 79 79 106
 106 106 43 43 43 17 17 85 85 85 44 44 44 44 14 14 14 14 14 86
 86 86 86 106 106 106 106 43 43 43 28 28 85 85 85 44 44 44 44 44
 80 80 80 80 86 86 86 86 106 106 106 106 106 43 43 28 28 28 85 44
 44 44 44 44 44 80 80 80 80 86 86 86 108 108 106 106 106 106 65 65
 65 28 28 85 44 44 44 44 44 44 80 80 80 107 107 86 108 108 108 108
 108 65 65 65 65 65 65 69 69 44 44 44 44 44 44 107 107 107 107 107
 108 108 108 108 108 108 65 65 65 65 65 65 69 69 69 44 44 44 44 107
 107 107 107 107 107 108 108 108 108 108 108 65 65 65 65 65 69 69 69 78
 78 78 78 107 107 107 107 107 107 107 108 108 108 108 108 108 108 65 65 65
 65 69 69 69 78 78 78 78 107 107 107 107 107 107 107 108 108 108 108 108
 108 108 65 65 65 65 69 69 78 78 78 78 78 78 107 107 107 107 2 2
 2 108 108 108 108 108 108 65 65 65 55 55 78 78 78 78 78 78 78 78
 107 107 2 2 2 2 2 108 108 108 108 108 108 56 55 55 55 78 78 78
 78 78 78 78 78 78 2 2 2 2 2 2 2 108 108 108 48 48 56 55
 89 89 89 78 78 78 78 78 78 78 2 2 2 2 2 2 2 2 48 48
 48 48 48 48 89 89 89 89 89 78 78 78 78 78 60 60 2 2 2 2
 2 2 2 48 48 48 48 48 89 89 89 89 89 89 89 78 78 78 60 60
 60 60 2 2 2 2 2 48 48 48 48 48 48 89 89 89 89 89 89 89
 89 89 60 60 60 60 60 77 77 2 2 48 48 48 48 48 48 48 89 89
 89 89 89 89 89 89 83 83 83 60 60 60 77 77 77 77 48 48 96 96
 48 48 89 89 89 89 89 89 89 89 89 83 83 83 83 60 60 77 77 77
 77 96 96 96 96 96 48 89 89 89 89 89 89 89 89 89 109 83 109 109
 109 77 77 77 77 77 96 96 96 96 96 96 89 89 89 89 89 89 89 89
 109 109 109 109 109 109 109 77 77 77 77 96 96 96 96 96 96 64 89 89
 89 89 89 89 109 109 109 109 109 109 109 109 109 77 77 79 96 96 96 96
 96 64 64 64 64 89 89 89 89 109 109 109 109 109 109 109 109 109 109 79
 79 79 96 96 96 96 64 64 64 64 64 89 85 85 109 109 109 109 109 109
 109 109 109 109 79 79 79 79 96 96 96 64 64 64 64 43 85 85 85 85
 109 109 109 109 109 109 14 14 14 86 86 86 79 79 79 106 43 43 43 43
 43 85 85 85 85 85 109 109 109 109 14 14 14 86 86 86 86 86 106 106
 106 43 43 43 43 43 85 85 85 85 85 109 109 109 109 14 14 14 86 86
 86 86 86 106 106 106 106 43 43 43 43 85 85 85 85 85 44 44 44 14
 14 14 14 86 86 86 86 86 106 106 106 106 43 43 43 43 85 85 85 85
 44 44 44 44 44 14 14 14 86 86 86 86 86 106 106 106 106 106 43 43
 43 85 85 85 85 44 44 44 44 44 80 80 80 86 86 86 86 86 106 106
 106 106 106 106 106 65 85 85 85 44 44 44 44 44 44 80 80 80 107 86
 86 108 108 108 108 106 106 106 106 65 65 69 69 69 44 44 44 44 44 44
 107 107 107 107 108 108 108 108 108 108 108 108 65 65 65 65 69 69 69 69
 44 44 44 44 107 107 107 107 107 108 108 108 108 108 108 108 108 108 65 65
 65 69 69 69 69 69 44 44 44 107 107 107 107 107 108 108 108 108 108 108
 108 108 108 65 65 55 69 69 69 78 78 78 78 107 107 107 107 107 107 108
 108 108 108 108 108 108 108 65 65 65 55 55 55 55 78 78 78 78 78 107
 107 107 107 2 2 108 108 108 108 108 108 108 108 65 55 55 55 55 55 78
 78 78 78 78 78 61 107 2 2 2 2 2 108 108 108 108 108 108 55 55
 55 55 55 55 78 78 78 78 78 78 61 61 2 2 2 2 2 2 66 66
 66 66 66 55 55 55 55 55 55 78 78 78 78 78 60 61 61 2 2 2
 2 2 2 66 66 66 66 66 89 89 89 89 89 89 89 78 78 78 60 60
 60 60 2 2 2 2 2 2 66 66 66 66 66 89 89 89 89 89 89 89
 89 78 60 60 60 60 60 60 2 2 2 2 2 66 66 66 66 89 89 89
 89 89 89 89 89 89 89 60 60 60 60 60 60 77 2 2 2 48 66 66
 66 48 89 89 89 89 89 89 89 89 89 89 83 60 60 60 60 60 60 77
 77 96 96 96 96 66 66 89 89 89 89 89 89 89 89 89 83 83 60 60
 60 60 77 77 77 77 96 96 96 96 96 96 89 89 89 89 89 89 89 89
 89 109 109 109 109 60 60 77 77 77 96 96 96 96 96 96 96 89 89 89
 89 89 89 89 89 89 109 109 109 109 109 109 77 77 77 96 96 96 96 96
 96 96 64 89 89 89 89 89 89 89 109 109 109 109 109 109 109 109 77 77
 96 96 96 96 96 96 96 64 64 64 64 89 89 38 38 109 109 109 109 109
 109 109 109 90 86 96 96 96 96 96 96 74 64 64 64 64 89 38 38 38
 109 109 109 109 109 109 109 109 90 86 86 86 96 96 96 96 64 64 64 64
 43 85 85 85 85 109 109 109 109 109 109 109 14 86 86 86 86 86 96 106
 106 106 43 43 43 43 85 85 85 85 85 109 109 109 109 109 14 14 86 86
 86 86 86 106 106 106 106 43 43 43 43 85 85 85 85 85 109 109 101 101
 14 14 86 86 86 86 86 86 86 106 106 106 43 43 43 43 85 85 85 85
 85 85 44 101 101 101 14 86 86 86 86 86 86 106 106 106 106 43 43 43
 43 85 85 85 85 85 44 44 101 101 101 101 86 86 86 86 86 86 106 106
 106 106 106 43 43 43 85 85 85 85 85 44 44 101 101 101 101 86 86 86
 86 86 86 106 106 106 106 106 106 106 65 85 85 85 85 44 44 44 101 101
 101 101 101 86 86 108 108 108 108 108 106 106 106 106 106 65 69 69 69 44
 44 44 44 101 101 101 101 101 108 108 108 108 108 108 108 108 108 106 106 106
 65 69 69 69 69 44 30 44 101 101 101 101 101 108 108 108 108 108 108 108
 108 108 108 108 65 55 69 69 69 69 69 30 44 3 3 3 3 3 108 108
 108 108 108 108 108 108 108 108 108 55 55 55 69 69 55 78 70 70 3 3
 3 3 3 108 108 108 108 108 108 108 108 108 108 65 55 55 55 55 55 55
 78 70 70 70 3 3 3 3 108 108 108 108 108 108 108 108 108 108 55 55
 55 55 55 55 55 78 70 70 70 70 61 61 61 2 2 108 108 108 66 66
 108 108 108 55 55 55 55 55 55 55 78 70 70 70 61 61 61 61 2 2
 2 2 66 66 66 66 66 66 55 55 55 55 55 55 55 78 78 78 60 60
 61 61 61 2 2 2 2 66 66 66 66 66 66 55 55 89 89 89 89 89
 89 78 60 60 60 60 60 60 2 2 2 2 66 66 66 66 66 66 89 89
 89 89 89 89 89 89 89 60 60 60 60 60 60 60 2 2 2 66 66 66
 66 66 66 89 89 89 89 89 89 89 89 89 60 60 60 60 60 60 60 2
 2 2 66 66 66 66 66 89 89 89 89 89 89 89 89 89 89 60 60 60
 60 60 60 60 60 96 96 96 96 96 96 66 89 89 89 89 89 89 89 89
 89 89 60 60 60 60 60 60 60 77 96 96 96 96 96 96 96 89 89 89
 89 89 89 89 89 89 109 109 60 60 60 60 60 77 77 96 96 96 96 96
 96 96 89 89 89 89 89 89 89 89 89 109 109 109 109 109 109 71 71 71
 96 96 96 96 96 96 96 96 89 89 89 89 89 38 38 38 109 109 109 109
 109 109 71 71 71 96 96 96 96 96 96 74 74 64 64 89 89 38 38 38
 38 109 109 109 109 109 109 90 90 71 71 96 96 96 96 74 74 74 64 64
 64 38 38 38 38 38 109 109 109 109 109 109 90 90 90 86 96 96 96 96
 74 74 64 64 64 43 85 85 85 85 85 109 109 109 109 109 109 90 90 86
 86 86 86 106 106 106 106 43 43 43 43 85 85 85 85 85 109 109 101 101
 101 101 90 86 86 86 86 86 106 106 106 106 43 43 43 43 85 85 85 85
 85 101 101 101 101 101 101 86 86 86 86 86 86 106 106 106 106 43 43 43
 43 85 85 85 85 85 101 101 101 101 101 101 86 86 86 86 86 86 106 106
 106 106 106 43 43 43 85 85 85 85 85 101 101 101 101 101 101 101 86 86
 86 86 86 106 106 106 106 106 106 106 43 85 85 85 85 85 101 101 101 101
 101 101 101 86 86 86 86 86 106 106 106 106 106 106 106 65 85 85 85 85
 85 101 101 101 101 101 101 101 86 86 108 108 108 108 106 106 106 106 106 106
 55 69 69 85 85 30 30 101 101 101 101 101 101 86 108 108 108 108 108 108
 108 108 106 106 106 55 69 69 55 55 30 30 30 101 101 101 101 101 108 108
 108 108 108 108 108 108 108 108 108 108 55 55 55 55 55 55 30 30 3 3
 3 3 3 108 108 108 108 108 108 108 108 108 108 108 55 55 55 55 55 55
 55 30 3 3 3 3 3 3 3 108 108 108 108 108 108 108 108 108 55 55
 55 55 55 55 55 55 70 70 3 3 3 3 3 3 108 108 108 108 108 108
 108 108 108 55 55 55 55 55 55 55 55 70 70 70 3 61 61 61 87 87
 108 108 66 66 66 66 66 108 55 55 55 55 55 55 55 55 70 70 70 61
 61 61 61 87 87 87 66 66 66 66 66 66 66 55 55 55 55 55 55 55
 55 70 60 60 60 61 61 61 87 87 87 66 66 66 66 66 66 66 55 55
 89 89 89 89 89 89 60 60 60 60 60 61 61 87 87 87 66 66 66 66
 66 66 66 89 89 89 89 89 89 89 89 60 60 60 60 60 60 60 60 87
 66 66 66 66 66 66 66 66 89 89 89 89 89 89 89 89 89 60 60 60
 60 60 60 60 60 66 66 66 66 66 66 66 89 89 89 89 89 89 89 89
 89 89 60 60 60 60 60 60 60 60 96 96 96 96 96 96 96 89 89 89
 89 89 89 89 89 89 89 60 60 60 47 60 60 60 60 96 96 96 96 96
 96 96 89 89 89 89 89 89 89 89 89 89 60 60 47 47 47 71 71 96
 96 96 96 96 96 96 96 96 89 89 89 89 89 89 89 89 109 109 109 47
 47 47 71 71 71 96 96 96 96 96 96 96 96 89 89 89 89 38 38 38
 38 109 109 109 109 109 71 71 71 71 71 96 96 96 96 96 74 74 64 89
 89 38 38 38 38 38 109 109 109 109 109 71 71 71 71 71 96 96 96 96
 74 74 74 64 64 89 38 38 38 38 38 109 109 109 109 109 109 90 90 90
 71 96 96 96 96 74 74 74 64 64 89 38 38 38 38 38 109 101 101 101
 101 90 90 90 90 86 86 86 106 106 106 106 106 43 43 43 85 85 85 85
 85 101 101 101 101 101 90 90 90 90 86 86 86 106 106 106 106 106 43 43
 43 85 85 85 85 85 101 101 101 101 101 101 90 90 86 86 86 86 106 106
 106 106 106 106 43 43 85 85 85 85 85 101 101 101 101 101 101 101 86 86
 86 86 86 106 106 106 106 106 106 106 85 85 85 85 85 85 101 101 101 101
 101 101 101 86 86 86 86 86 106 106 106 106 106 106 106 85 85 85 85 85
 101 101 101 101 101 101 101 101 86 86 86 86 86 106 106 106 106 106 106 106
 16 85 85 85 85 101 101 101 101 101 101 101 101 19 19 19 108 108 108 106
 106 106 106 106 106 16 16 85 85 30 30 30 101 101 101 101 101 101 19 19
 108 108 108 108 108 108 106 106 16 16 55 69 55 55 30 30 30 101 101 101
 101 101 3 19 19 108 108 108 108 108 108 108 108 16 16 55 55 55 55 55
 30 30 3 3 3 3 3 3 3 108 108 108 108 108 108 108 108 108 16 55
 55 55 55 55 55 30 30 3 3 3 3 3 3 3 108 108 108 108 108 108
 108 108 108 55 55 55 55 55 55 55 55 70 3 3 3 3 3 3 3 3
 108 108 108 108 108 108 108 108 55 55 55 55 55 55 55 55 70 3 3 3
 3 3 87 87 87 87 66 66 66 66 66 66 66 55 55 55 55 55 55 55
 55 70 3 3 3 61 61 87 87 87 87 66 66 66 66 66 66 66 55 55
 55 55 55 55 55 55 62 62 60 60 61 61 61 87 87 87 66 66 66 66
 66 66 66 55 55 55 55 55 55 55 62 62 62 60 60 60 61 87 87 87
 87 66 66 66 66 66 66 66 55 55 89 89 89 89 89 89 62 62 60 60
 60 60 60 60 87 87 66 66 66 66 66 66 66 89 89 89 89 89 89 89
 89 89 60 60 60 60 60 60 60 87 87 66 66 66 66 66 66 89 89 89
 89 89 89 89 89 102 102 102 60 60 60 60 60 60 11 11 11 96 96 96
 96 96 89 89 89 89 89 89 89 89 102 102 102 60 47 47 47 60 11 11
 11 11 96 96 96 96 96 89 89 89 89 89 89 89 89 102 102 102 102 47
 47 47 11 11 11 11 11 96 96 96 96 96 96 89 89 89 89 89 89 89
 102 102 102 47 47 47 47 71 71 71 11 96 96 96 96 96 96 96 89 89
 89 89 38 38 38 38 102 81 47 47 47 71 71 71 71 71 96 96 96 96
 96 74 74 89 89 89 38 38 38 38 38 38 109 109 109 71 71 71 71 71
 71 96 96 96 96 74 74 74 74 89 89 38 38 38 38 38 38 109 109 109
 71 71 90 71 71 71 96 96 96 96 74 74 74 74 64 89 38 38 38 38
 38 101 101 101 101 101 90 90 90 90 90 86 86 106 106 106 106 106 106 106
 43 85 85 85 85 101 101 101 101 101 101 90 90 90 90 86 86 86 106 106
 106 106 106 106 106 43 85 85 85 85 101 101 101 101 101 101 101 90 90 90
 86 86 86 106 106 106 106 106 106 106 43 85 85 85 85 101 101 101 101 101
 101 101 101 90 86 86 86 86 106 106 106 106 106 106 106 21 21 21 21 85
 101 101 101 101 101 101 101 101 101 86 86 86 86 106 106 106 106 106 106 106
 21 21 21 21 21 101 101 101 101 101 101 101 101 19 19 19 19 19 106 106
 106 106 106 106 106 16 21 21 21 21 101 101 101 101 101 101 101 101 19 19
 19 19 19 108 106 106 106 106 106 16 16 16 21 21 30 30 30 101 101 101
 101 101 101 19 19 19 19 108 108 108 108 106 16 16 16 16 16 55 55 30
 30 30 101 101 101 3 3 3 19 19 19 108 108 108 108 108 108 16 16 16
 55 55 55 55 55 30 30 3 3 3 3 3 3 3 108 108 108 108 108 108
 108 13 13 16 16 55 55 55 55 55 30 30 3 3 3 3 3 3 3 3
 108 15 15 108 108 13 13 13 13 55 55 55 55 55 55 55 3 3 3 3
 3 3 3 3 3 108 15 15 108 108 108 13 13 55 55 55 55 55 55 55
 55 3 3 3 3 3 3 87 87 87 87 66 66 66 66 66 66 13 55 55
 55 55 55 55 55 55 3 3 3 3 3 61 87 87 87 87 66 66 66 66
 66 66 66 55 55 55 55 55 55 55 55 62 62 3 3 3 61 87 87 87
 87 66 66 66 66 66 66 66 55 55 55 55 55 55 55 62 62 62 62 60
 60 87 87 87 87 87 66 66 66 66 66 66 66 55 55 89 89 89 89 89
 102 62 62 62 60 60 60 87 87 87 87 66 66 66 66 66 66 66 89 89
 89 89 89 89 89 102 62 62 60 60 60 60 60 87 87 87 66 66 66 66
 66 66 89 89 89 89 89 89 102 102 102 102 102 60 60 47 60 60 11 11
 11 11 96 96 96 96 96 89 89 89 89 89 89 102 102 102 102 102 102 47
 47 47 11 11 11 11 11 96 96 96 96 96 89 89 89 89 89 89 102 102
 102 102 102 102 47 47 47 11 11 11 11 11 11 96 96 96 96 96 89 89
 89 89 89 89 102 102 102 102 81 47 47 47 71 71 11 11 11 11 96 96
 96 96 96 89 89 89 89 38 38 38 102 102 81 81 47 47 71 71 71 71
 11 11 96 96 96 96 96 74 89 89 89 89 38 38 38 38 102 81 81 81
 71 71 71 71 71 71 11 96 96 96 96 74 74 74 89 7 38 38 38 38
 38 38 101 101 101 71 71 71 71 71 71 11 96 96 96 74 74 74 74 7
 7 7 38 38 38 38 101 101 101 101 101 90 90 90 90 90 86 86 106 106
 106 106 106 106 7 7 7 21 85 21 101 101 101 101 101 101 90 90 90 90
 90 86 86 106 106 106 106 106 106 106 21 21 21 21 21 101 101 101 101 101
 101 101 90 90 90 86 86 86 106 106 106 106 106 106 106 21 21 21 21 21
 101 101 101 101 101 101 101 101 90 19 19 19 19 106 106 106 106 106 106 106
 21 21 21 21 85 101 101 101 101 101 101 101 101 19 19 19 19 19 106 106
 106 106 106 106 106 21 21 21 21 21 101 101 101 101 101 101 101 101 19 19
 19 19 19 19 106 106 106 106 106 106 16 21 21 21 21 101 101 101 101 101
 101 101 101 19 19 19 19 19 19 106 106 106 106 16 16 16 16 21 21 21
 101 101 101 101 101 101 101 101 19 19 19 19 19 108 108 108 16 16 16 16
 16 16 55 55 30 30 3 3 3 3 3 3 3 19 19 19 19 108 108 108
 108 16 16 16 16 16 55 55 55 55 30 3 3 3 3 3 3 3 3 19
 19 15 15 108 108 13 13 13 16 16 55 55 55 55 55 55 3 3 3 3
 3 3 3 3 3 108 15 15 15 108 13 13 13 13 16 55 55 55 55 55
 3 3 3 3 3 3 3 3 3 3 3 15 15 15 108 13 13 13 13 55
 55 55 55 55 55 55 3 3 3 3 3 3 3 87 87 87 15 15 66 66
 66 13 13 55 55 55 55 55 55 55 55 3 3 3 3 3 3 87 87 87
 87 87 66 66 66 66 66 66 55 55 55 55 55 55 55 55 62 62 3 3
 3 87 87 87 87 87 87 66 66 66 66 66 66 55 55 55 55 55 55 102
 62 62 62 62 60 60 87 87 87 87 87 87 66 66 66 66 66 66 66 55
 89 89 89 89 102 102 62 62 62 60 60 60 87 87 87 87 87 66 66 66
 66 66 66 89 89 89 89 89 102 102 102 62 62 62 60 60 60 60 87 87
 87 87 66 66 66 66 66 66 89 89 89 89 102 102 102 102 102 102 102 60
 47 60 11 11 11 11 11 11 58 58 58 58 89 89 89 89 89 102 102 102
 102 102 102 102 47 47 47 11 11 11 11 11 11 96 96 96 96 89 89 89
 89 89 102 102 102 102 102 81 81 81 47 47 11 11 11 11 11 11 96 96
 96 96 96 89 89 89 89 89 102 102 102 102 81 81 81 47 47 11 11 11
 11 11 11 11 96 96 22 22 89 89 89 7 38 102 102 102 81 81 81 81
 81 71 71 71 11 11 11 11 22 22 22 22 22 89 89 7 7 7 38 38
 102 81 81 81 81 71 71 71 71 71 11 11 11 22 22 22 22 22 22 89
 7 7 7 7 38 38 81 81 81 81 71 71 71 71 71 71 11 22 22 22
 22 22 22 7 7 7 7 7 7 38 101 101 101 101 101 101 90 90 90 90
 90 11 22 22 22 22 22 22 7 7 7 7 7 21 21 101 101 101 101 101
 101 101 90 90 90 90 90 86 106 106 106 106 106 106 7 7 21 21 21 21
 21 101 101 101 101 101 101 90 90 90 19 86 86 106 106 106 106 106 106 106
 21 21 21 21 21 21 101 101 101 101 101 101 101 19 19 19 19 19 106 106
 106 106 106 106 106 21 21 21 21 21 21 101 101 101 101 101 101 101 19 19
 19 19 19 19 106 106 106 106 106 106 21 21 21 21 21 21 101 101 101 101
 101 101 101 19 19 19 19 19 19 106 106 106 111 111 106 21 21 21 21 21
 21 101 101 101 101 101 101 19 19 19 19 19 19 19 19 106 111 111 111 16
 16 21 21 21 21 101 101 101 101 101 101 101 19 19 19 19 19 19 19 108
 111 16 16 16 16 16 16 55 55 21 3 3 3 3 3 3 3 3 19 19
 19 19 19 19 108 108 16 16 16 16 16 55 55 55 55 3 3 3 3 3
 3 3 3 3 19 19 19 15 15 108 13 13 16 16 16 55 55 55 55 55
 3 3 3 3 3 3 3 3 3 3 3 15 15 15 108 13 13 13 16 16
 55 55 55 55 72 3 3 3 3 3 3 3 3 3 18 3 15 15 15 108
 13 13 13 13 55 55 55 55 55 55 3 3 3 3 3 3 3 3 18 18
 87 15 15 15 66 66 13 13 13 55 55 55 55 55 72 3 3 3 3 3
 3 3 87 87 87 87 87 66 66 66 66 66 13 55 55 55 55 55 55 105
 105 3 3 3 3 3 87 87 87 87 87 87 66 66 66 66 66 66 55 55
 55 55 55 102 102 62 62 62 62 3 3 87 87 87 87 87 87 58 58 58
 58 58 58 58 55 89 89 102 102 102 102 62 62 62 60 60 87 87 87 87
 87 87 58 58 58 58 58 58 89 89 89 89 102 102 102 102 102 62 62 60
 60 60 87 87 87 87 58 58 58 58 58 58 58 89 89 89 89 102 102 102
 102 102 102 102 102 47 60 11 11 11 11 11 58 58 58 58 58 58 89 89
 89 89 102 102 102 102 102 102 102 102 47 47 11 11 11 11 11 11 58 58
 58 58 58 89 89 89 89 102 102 102 102 102 81 81 81 47 11 11 11 11
 11 11 11 11 22 22 22 22 89 89 89 89 102 102 102 102 81 81 81 81
 81 11 11 11 11 11 11 11 22 22 22 22 22 22 89 7 7 102 102 102
 102 81 81 81 81 81 71 11 11 11 11 11 11 22 22 22 22 22 22 22
 7 7 7 7 102 102 81 81 81 81 71 71 71 71 11 11 11 22 22 22
 22 22 22 22 7 7 7 7 7 7 102 81 81 81 81 71 71 71 71 71
 11 22 22 22 22 22 22 22 22 7 7 7 7 7 7 102 101 101 101 101
 101 101 90 90 90 11 22 22 22 22 22 22 22 7 7 7 7 7 21 21
 21 101 101 101 101 101 101 90 90 90 19 22 22 22 22 22 22 22 7 7
 7 7 21 21 21 21 101 101 101 101 101 101 101 90 19 19 19 22 22 106
 106 106 106 111 7 50 50 21 21 21 21 101 101 101 101 101 101 101 19 19
 19 19 19 19 106 111 111 111 111 111 50 50 21 21 21 21 101 101 101 101
 101 101 101 19 19 19 19 19 19 19 111 111 111 111 111 50 21 21 21 21
 21 101 101 101 101 101 101 19 19 19 19 19 19 19 19 111 111 111 111 111
 111 21 21 21 21 21 101 101 101 101 101 101 19 19 19 19 19 19 19 19
 111 111 111 111 111 111 21 21 21 21 100 100 100 100 100 100 3 19 19 19
 19 19 19 19 19 111 111 111 111 111 111 111 21 21 21 3 3 100 100 100
 3 3 3 19 19 19 19 19 19 19 111 111 111 111 111 111 111 55 72 72
 3 3 3 3 3 3 3 3 3 19 19 19 19 19 108 13 13 111 16 16
 55 55 55 72 72 3 3 3 3 3 3 3 3 3 3 19 19 15 15 108
 13 13 13 111 16 55 55 55 72 72 72 3 3 3 3 3 3 3 18 18
 18 15 15 15 108 13 13 13 13 55 55 55 55 72 72 72 3 3 3 3
 3 3 18 18 18 18 18 15 15 66 66 13 13 13 55 55 55 55 72 72
 105 3 3 3 3 3 3 18 18 18 87 58 58 58 58 58 58 58 55 55
 55 55 91 91 105 105 105 3 3 3 3 3 87 87 87 87 58 58 58 58
 58 58 58 58 55 91 91 91 91 91 105 105 62 3 3 3 87 87 87 87
 87 58 58 58 58 58 58 58 58 58 91 91 91 91 102 102 102 62 62 3
 3 87 87 87 87 87 58 58 58 58 58 58 58 58 89 89 91 91 102 102
 102 102 102 102 102 60 60 87 87 87 58 58 58 58 58 58 58 58 58 89
 91 91 91 102 102 102 102 102 102 102 47 110 11 11 11 11 58 58 58 58
 58 58 58 58 89 91 91 102 102 102 102 102 102 102 102 110 110 11 11 11
 11 11 11 58 58 58 58 58 58 89 89 102 102 102 102 102 102 81 81 81
 110 110 11 11 11 11 11 11 22 22 22 22 22 22 89 89 102 102 102 102
 102 81 81 81 81 110 110 11 11 11 11 11 11 22 22 22 22 22 22 22
 7 7 102 102 102 102 81 81 81 110 110 110 11 11 11 11 11 22 22 22
 22 22 22 22 22 7 7 7 102 102 102 81 81 81 110 110 110 110 11 11
 11 11 22 22 22 22 22 22 22 22 7 7 7 7 7 102 81 81 81 110
 110 110 110 11 11 11 22 22 22 22 22 22 22 22 7 7 7 7 7 7
 7 101 101 101 110 110 110 110 90 11 11 22 22 22 22 22 22 22 22 7
 7 7 7 7 21 21 101 101 101 101 101 101 90 90 19 19 22 22 22 22
 22 22 22 8 7 50 50 50 21 21 21 101 101 101 101 101 101 101 19 19
 19 19 19 22 22 22 22 111 111 50 50 50 50 21 21 21 101 101 101 101
 101 101 101 19 19 19 19 19 19 111 111 111 111 111 50 50 50 50 21 21
 21 101 101 101 101 101 101 19 19 19 19 19 19 19 111 111 111 111 111 50
 50 50 21 21 21 21 101 101 101 101 101 101 19 19 19 19 19 19 19 111
 111 111 111 111 111 111 50 21 21 21 21 100 100 100 100 100 100 19 19 19
 19 19 19 19 111 111 111 111 111 111 111 111 21 21 21 100 100 100 100 100
 100 100 19 19 19 19 19 19 19 111 111 111 111 111 111 111 111 111 21 21
 3 100 100 100 100 100 100 3 19 19 19 19 19 19 111 111 111 111 111 111
 111 111 72 72 72 72 3 100 100 100 3 3 3 3 19 19 19 19 19 111
 111 111 111 111 111 111 111 72 72 72 72 72 3 3 3 3 3 3 3 3
 19 19 19 19 111 111 111 111 111 111 76 72 72 72 72 72 72 3 3 3
 3 3 3 18 18 18 19 19 29 29 13 13 13 111 111 76 72 72 72 72
 72 72 3 3 3 3 3 3 18 18 18 18 29 29 29 29 58 76 76 76
 76 72 72 72 105 105 105 3 3 3 3 3 3 18 18 18 58 58 58 58
 58 58 58 76 76 91 91 91 91 105 105 105 72 3 3 3 3 3 87 87
 87 58 58 58 58 58 58 58 58 76 91 91 91 91 91 105 105 72 3 3
 3 3 87 87 87 87 58 58 58 58 58 58 58 58 58 91 91 91 91 91
 91 102 102 102 3 3 3 87 87 87 58 58 58 58 58 58 58 58 58 58
 91 91 91 91 102 102 102 102 102 102 60 3 87 87 87 58 58 58 58 58
 58 58 58 58 58 91 91 91 91 102 102 102 102 102 102 110 110 110 11 11
 11 58 58 58 58 58 58 58 58 58 91 91 102 102 102 102 102 102 102 110
 110 110 110 11 11 11 11 58 58 58 58 58 58 36 36 36 102 102 102 102
 102 102 102 102 110 110 110 110 11 11 11 11 11 22 22 22 22 22 36 36
 36 102 102 102 102 102 102 81 81 110 110 110 110 11 11 11 11 22 22 22
 22 22 22 22 36 36 7 102 102 102 102 102 81 110 110 110 110 110 11 11
 11 11 22 22 22 22 22 22 22 22 7 7 7 1 1 1 57 57 110 110
 110 110 110 110 11 11 22 22 22 22 22 22 22 22 22 7 7 7 7 1
 1 57 57 110 110 110 110 110 110 11 11 22 22 22 22 22 22 22 22 22
 7 7 7 7 57 57 57 57 110 110 110 110 110 110 110 11 22 22 22 22
 22 22 22 22 7 7 7 7 21 21 57 57 57 101 101 110 110 110 110 110
 19 22 22 22 22 22 8 8 8 8 50 50 50 21 21 21 101 101 101 101
 101 110 110 19 19 19 19 22 22 22 8 8 8 111 111 50 50 50 21 21
 21 101 101 101 101 101 101 19 19 19 19 19 19 19 111 111 111 111 111 50
 50 50 50 21 21 21 101 101 101 101 101 101 19 19 19 19 19 19 19 111
 111 111 111 111 111 50 50 50 21 21 21 100 100 100 100 100 100 19 19 19
 19 19 19 19 111 111 111 111 111 111 111 50 50 21 21 21 100 100 100 100
 100 100 19 19 19 19 19 19 19 111 111 111 111 111 111 111 111 111 21 21
 21 100 100 100 100 100 100 19 19 19 19 19 19 19 111 111 111 111 111 111
 111 111 111 21 72 100 100 100 100 100 100 100 3 19 19 19 19 19 19 111
 111 111 111 111 111 111 111 72 72 72 72 100 100 100 100 100 100 3 3 19
 19 19 19 19 111 111 111 111 111 111 111 111 72 72 72 72 72 3 100 100
 3 3 3 3 3 19 19 19 19 111 111 111 111 111 111 76 72 72 72 72
 72 72 72 3 3 3 3 3 3 3 18 19 29 29 29 29 76 76 76 76
 76 72 72 72 72 72 72 72 3 3 3 3 3 3 18 18 29 29 29 29
 29 29 76 76 76 76 72 72 72 72 105 72 72 3 3 3 3 3 3 18
 18 29 29 29 29 29 29 76 76 76 76 91 91 91 105 105 105 72 72 3
 3 3 3 3 87 58 58 58 58 58 58 58 58 76 76 91 91 91 91 91
 105 105 72 72 3 3 3 87 87 87 58 58 58 58 58 58 58 58 76 76
 91 91 91 91 91 91 102 102 102 3 3 3 87 87 87 58 58 58 58 58
 58 58 58 58 58 91 91 91 91 91 102 102 102 102 102 60 3 87 87 58
 58 58 58 58 58 58 58 58 58 58 91 91 91 91 102 102 102 102 102 110
 110 110 110 110 11 58 58 58 58 58 58 58 58 36 36 36 91 102 102 102
 102 102 102 102 110 110 110 110 110 11 11 58 58 58 58 58 58 36 36 36
 36 36 102 102 102 102 102 102 110 110 110 110 110 110 11 11 11 22 22 22
 22 22 36 36 36 36 36 102 102 102 102 57 57 110 110 110 110 110 110 11
 11 11 22 22 22 22 22 36 36 36 36 36 1 1 1 1 1 57 110 110
 110 110 110 110 11 11 22 22 22 22 22 22 22 36 36 36 7 1 1 1
 1 1 57 110 110 110 110 110 110 110 11 22 22 22 22 22 22 22 22 36
 7 7 7 1 1 1 57 57 110 110 110 110 110 110 110 22 22 22 22 22
 22 22 22 22 22 7 7 7 7 57 57 57 57 110 110 110 110 110 110 110