# vtk DataFile Version 2.0
Data set from ImportExport Version 6.5.141.ec284b7a5
ASCII

DATASET RECTILINEAR_GRID
DIMENSIONS 26 26 26
X_COORDINATES 26 float
-3.000000 3.000000 9.000000 15.000000 21.000000 27.000000 33.000000 39.000000 45.000000 51.000000 57.000000 63.000000 69.000000 75.000000 81.000000 87.000000 93.000000 99.000000 105.000000 111.000000 117.000000 
123.000000 129.000000 135.000000 141.000000 147.000000 
Y_COORDINATES 26 float
-3.000000 3.000000 9.000000 15.000000 21.000000 27.000000 33.000000 39.000000 45.000000 51.000000 57.000000 63.000000 69.000000 75.000000 81.000000 87.000000 93.000000 99.000000 105.000000 111.000000 117.000000 
123.000000 129.000000 135.000000 141.000000 147.000000 
Z_COORDINATES 26 float
-3.000000 3.000000 9.000000 15.000000 21.000000 27.000000 33.000000 39.000000 45.000000 51.000000 57.000000 63.000000 69.000000 75.000000 81.000000 87.000000 93.000000 99.000000 105.000000 111.000000 117.000000 
123.000000 129.000000 135.000000 141.000000 147.000000 
CELL_DATA 15625
SCALARS FeatureIds int 1
LOOKUP_TABLE default
 37 37 4 4 4 4 4 4 4 4 82 82 82 82 82 82 27 27 27 28
 76 37 37 37 37 4 4 4 4 4 4 4 4 4 4 82 82 82 82 82
 70 27 27 27 27 76 76 37 37 37 4 4 4 4 4 4 4 4 4 4
 4 82 82 82 70 70 27 27 27 27 76 76 76 4 4 4 4 4 4 4
 4 4 4 4 4 66 66 66 70 70 27 27 27 27 27 76 76 76 4 4
 4 4 4 4 4 4 4 4 4 1 66 66 66 66 70 27 27 27 27 27
 27 76 76 4 4 4 4 4 4 4 4 4 4 4 1 1 66 66 7 7
 27 27 27 27 27 27 76 76 4 4 4 4 4 4 4 4 4 4 4 1
 1 66 7 7 7 27 27 27 27 3 3 3 3 4 4 4 4 4 4 4
 4 4 4 4 1 1 66 7 7 7 7 7 3 3 3 3 3 3 3 3
 3 4 4 4 4 4 4 4 46 46 46 46 87 87 7 7 7 3 3 3
 3 3 3 3 3 3 3 4 4 46 46 46 46 46 46 46 46 87 87 87
 7 7 3 3 3 3 3 3 3 3 3 35 35 35 46 46 46 46 46 46
 46 46 87 87 87 87 64 3 3 3 3 3 3 3 3 35 35 35 35 46
 46 46 46 46 46 46 46 87 87 87 87 87 3 3 3 3 3 3 3 3
 35 35 35 35 46 46 46 46 46 46 46 46 87 87 87 87 87 64 64 3
 3 3 3 3 35 35 35 35 35 46 46 46 46 46 46 46 46 87 87 87
 80 80 30 64 3 3 3 3 3 35 35 35 35 35 46 46 46 46 46 46
 46 46 46 87 80 80 80 30 30 30 3 3 3 35 35 35 35 35 35 46
 46 46 46 46 46 46 46 46 80 80 80 30 30 30 30 30 30 3 35 35
 35 35 35 35 46 46 46 46 46 46 46 13 13 13 80 80 30 30 30 30
 30 30 72 72 72 72 72 35 35 46 46 46 46 46 46 13 13 13 13 13
 30 30 30 30 30 30 72 72 72 72 72 72 72 72 46 46 46 46 13 13
 13 13 13 13 13 30 30 30 30 30 51 51 72 72 72 72 72 72 72 12
 12 12 12 13 13 13 13 13 13 13 30 30 30 30 51 51 51 72 72 72
 72 72 72 12 12 12 12 12 13 13 13 13 13 13 13 13 30 51 51 51
 51 51 51 72 72 72 72 72 12 12 12 12 12 12 13 74 74 13 13 13
 13 51 51 51 51 51 51 51 51 72 37 37 37 12 12 12 12 12 12 13
 74 74 74 42 42 42 51 51 51 51 51 51 51 51 37 37 37 37 12 12
 12 12 12 12 13 74 74 42 42 42 42 51 51 51 51 51 51 51 37 37
 37 37 37 37 12 12 12 12 12 74 74 42 42 42 42 42 42 51 51 51
 51 51 51 37 37 37 37 4 4 4 4 4 4 4 82 82 82 82 82 82
 82 27 27 28 28 76 76 37 37 37 4 4 4 4 4 4 4 4 4 4
 82 82 82 82 82 70 27 27 27 76 76 76 76 37 37 4 4 4 4 4
 4 4 4 4 4 82 82 82 82 70 70 27 27 27 76 76 76 76 76 4
 4 4 4 4 4 4 4 4 4 4 66 66 66 70 70 27 27 27 27 27
 76 76 76 76 4 4 4 4 4 4 4 4 4 4 1 66 66 66 66 70
 27 27 27 27 27 76 76 76 76 4 4 4 4 4 4 4 4 4 1 1
 1 66 66 7 7 27 27 27 27 27 76 76 76 40 4 4 4 4 4 4
 4 4 4 4 1 1 66 7 7 7 27 27 27 27 27 27 3 40 40 4
 4 4 4 4 4 4 4 4 4 1 1 7 7 7 7 7 7 27 27 3
 3 3 3 40 40 3 4 4 4 4 4 4 4 46 46 46 7 7 87 7
 7 7 64 64 3 3 3 3 3 3 3 3 4 4 46 46 46 46 46 46
 46 87 87 87 87 7 7 64 64 3 3 3 3 3 3 3 35 35 46 46
 46 46 46 46 46 46 87 87 87 87 87 64 64 64 3 3 3 3 3 3
 3 35 35 46 46 46 46 46 46 46 46 87 87 87 87 87 64 64 64 64
 3 3 3 3 3 35 35 35 46 46 46 46 46 46 46 46 46 87 87 87
 87 64 64 64 64 3 3 3 3 3 35 35 35 46 46 46 46 46 46 46
 46 46 87 87 87 80 64 64 64 64 64 3 3 3 35 35 35 35 46 46
 46 46 46 46 46 46 46 87 87 80 80 80 30 30 64 64 64 3 35 35
 35 35 35 46 46 46 46 46 46 46 46 46 46 80 80 80 80 30 30 30
 30 64 72 72 35 72 35 35 46 46 46 46 46 46 46 46 13 13 13 80
 80 30 30 30 30 30 72 72 72 72 72 72 72 46 46 46 46 46 46 13
 13 13 13 13 13 30 30 30 30 30 30 72 72 72 72 72 72 72 12 12
 12 12 46 13 13 13 13 13 13 13 30 30 30 30 30 51 72 72 72 72
 72 72 72 12 12 12 12 12 13 13 13 13 13 13 13 30 30 30 30 51
 51 51 72 72 72 72 72 72 12 12 12 12 12 13 13 13 13 13 13 13
 30 30 51 51 51 51 51 72 72 72 72 72 12 12 12 12 12 12 12 13
 74 74 74 13 13 13 51 51 51 51 51 51 51 72 72 37 37 12 12 12
 12 12 12 12 13 74 74 74 13 13 13 51 51 51 51 51 51 51 37 37
 37 37 37 12 12 12 12 12 12 74 74 74 74 42 42 42 51 51 51 51
 51 51 51 37 37 37 37 37 12 12 12 12 12 12 74 74 74 42 42 42
 42 42 51 51 51 51 51 51 37 37 37 37 4 4 4 4 4 4 18 82
 82 82 82 82 82 82 70 70 28 28 76 76 76 37 37 4 4 4 4 4
 4 4 4 4 82 82 82 82 82 82 70 70 70 27 27 76 76 76 76 37
 4 4 4 4 4 4 4 4 4 82 82 82 82 82 70 70 70 70 27 27
 76 76 76 76 4 4 4 4 4 4 4 4 4 4 82 82 82 82 70 70
 70 70 27 27 27 76 76 76 76 4 4 4 4 4 4 4 4 4 4 1
 66 66 66 70 70 70 27 27 27 27 76 76 76 76 4 4 4 4 4 4
 4 4 4 1 1 66 66 66 7 7 70 27 27 27 27 76 76 40 40 4
 4 4 4 31 4 4 4 4 4 1 66 7 7 7 7 7 27 27 27 27
 76 40 40 40 40 4 31 31 31 31 4 4 4 4 1 7 7 7 7 7
 7 7 90 90 64 3 3 40 40 40 3 31 31 31 31 4 4 46 46 46
 46 7 7 7 7 7 7 7 64 64 3 3 3 40 40 3 3 31 31 31
 46 46 46 46 46 46 7 7 7 7 7 7 64 64 64 3 3 3 3 3
 3 3 31 31 46 46 46 46 46 46 46 87 87 87 87 7 64 64 64 64
 64 3 3 3 3 3 35 35 46 46 46 46 46 46 46 46 87 87 87 87
 87 64 64 64 64 64 3 3 3 3 3 35 35 46 46 46 46 46 46 46
 46 46 87 87 87 87 64 64 64 64 64 64 3 3 3 35 35 35 46 46
 46 46 46 46 46 46 46 87 87 87 64 64 64 64 64 64 64 3 3 3
 35 35 35 46 46 46 46 46 46 46 46 46 46 80 80 80 80 64 64 64
 64 64 49 49 49 35 35 35 46 46 46 46 46 46 46 46 46 46 80 80
 80 30 30 30 30 30 49 49 49 49 62 62 35 46 46 46 46 46 46 46
 46 13 13 13 80 80 30 30 30 30 30 72 72 72 72 72 72 72 46 46
 46 46 46 46 13 13 13 13 13 13 30 30 30 30 30 30 72 72 72 72
 72 72 72 12 12 12 12 12 13 13 13 13 13 13 13 30 30 30 30 30
 51 72 72 72 72 72 72 72 12 12 12 12 12 13 13 13 13 13 13 13
 30 30 30 30 51 51 72 72 72 72 72 72 72 12 12 12 12 12 12 13
 13 13 13 13 13 13 30 30 51 51 51 51 72 72 72 72 72 12 12 12
 12 12 12 12 13 13 74 13 13 13 13 67 67 51 51 51 51 72 72 72
 37 37 12 12 12 12 12 12 12 13 74 74 13 13 13 13 67 67 28 28
 51 51 51 72 72 37 37 12 12 12 12 12 12 12 18 74 74 13 13 13
 13 51 51 28 28 28 51 51 37 37 37 37 37 12 12 12 12 12 12 18
 82 82 82 82 82 42 42 51 28 28 28 51 51 37 37 39 39 39 39 39
 39 39 18 18 82 82 82 82 82 82 82 70 70 28 28 28 76 76 37 37
 39 39 39 39 39 39 4 4 82 82 82 82 82 82 82 70 70 70 27 76
 76 76 76 76 37 4 4 4 4 4 4 4 4 82 82 82 82 82 82 70
 70 70 70 27 76 76 76 76 76 76 4 4 4 4 4 4 4 4 82 82
 82 82 82 82 70 70 70 70 27 27 76 76 76 76 4 4 4 4 4 4
 4 4 4 82 82 82 82 82 82 70 70 70 27 27 27 76 76 76 76 4
 4 4 4 4 4 4 4 4 1 1 66 66 7 7 7 70 90 27 27 27
 76 76 40 40 40 40 4 31 31 31 4 4 4 75 75 66 7 7 7 7
 7 90 90 90 90 90 40 40 40 40 40 31 31 31 31 31 4 4 75 75
 7 7 7 7 7 7 7 90 90 90 90 40 40 40 40 40 31 31 31 31
 31 31 46 46 46 7 7 7 7 7 7 7 7 64 64 64 3 40 40 40
 3 31 31 31 31 31 46 46 46 46 46 7 7 7 7 7 7 64 64 64
 64 3 3 3 3 3 3 31 31 31 46 46 46 46 46 46 46 7 7 7
 7 7 64 64 64 64 3 3 3 3 3 3 46 46 46 46 46 46 46 46
 46 87 87 87 7 7 64 64 64 64 64 64 3 3 3 3 3 46 46 46
 46 46 46 46 46 46 46 87 87 87 7 64 64 64 64 64 64 3 3 3
 49 35 46 46 46 46 46 46 46 46 46 46 50 50 50 64 64 64 64 64
 64 64 49 49 49 49 49 46 46 46 46 46 46 46 46 46 46 50 50 50
 50 64 64 64 64 64 64 49 49 49 49 49 46 46 46 46 46 46 46 46
 46 46 50 50 50 50 30 30 30 64 64 49 49 49 49 49 62 62 46 46
 46 46 46 46 46 46 46 50 50 50 19 19 19 30 30 30 49 49 49 49
 62 62 62 46 46 46 46 46 46 46 13 13 13 13 50 19 19 30 30 30
 62 62 62 62 62 62 62 62 12 12 12 12 12 13 13 13 13 13 13 13
 30 30 30 30 30 62 62 62 62 62 72 72 72 12 12 12 12 12 12 13
 13 13 13 13 13 13 30 30 30 62 62 62 62 62 72 72 72 12 12 12
 12 12 12 12 13 13 13 13 13 13 13 67 67 67 77 62 62 62 72 72
 72 72 12 12 12 12 12 12 12 13 13 13 13 13 13 67 67 67 67 77
 51 62 62 72 72 72 72 12 12 12 12 12 12 18 18 11 13 13 13 13
 67 67 67 28 28 28 51 62 72 72 37 37 12 12 12 12 12 18 18 18
 11 11 11 11 11 11 67 67 28 28 28 28 51 37 37 37 39 39 39 12
 12 12 18 18 18 82 82 82 82 82 82 82 28 28 28 28 28 51 37 37
 39 39 39 39 39 39 39 18 18 82 82 82 82 82 82 82 70 70 28 28
 28 76 76 76 39 39 39 39 39 39 39 39 39 82 82 82 82 82 82 82
 70 70 70 90 90 76 76 76 76 39 39 39 39 39 39 39 39 75 82 82
 82 82 82 82 82 70 70 70 90 90 76 76 76 76 76 39 39 39 39 39
 39 39 75 75 82 82 82 82 82 70 70 70 90 90 90 76 76 76 76 76
 39 39 39 39 39 4 75 75 75 75 82 82 82 82 70 70 90 90 90 90
 76 76 76 76 76 4 4 4 4 4 75 75 75 75 75 75 7 7 7 7
 90 90 90 90 90 90 76 40 40 40 40 4 31 31 31 75 75 75 75 75
 75 7 7 7 7 7 90 90 90 90 90 40 40 40 40 40 47 31 31 31
 31 75 75 75 75 7 7 7 7 7 7 7 90 90 90 90 40 40 40 40
 40 47 31 31 31 31 75 75 75 75 7 7 7 7 7 7 7 7 7 64
 64 3 40 40 40 3 47 31 31 31 31 46 46 46 46 46 7 7 7 7
 7 7 7 64 64 64 64 3 3 3 3 3 31 31 31 46 46 46 46 61
 61 7 7 7 7 7 7 64 64 64 64 64 3 3 3 3 3 46 46 46
 46 46 46 46 61 61 61 87 7 7 7 64 64 64 64 64 64 3 3 3
 3 3 46 46 46 46 46 46 46 46 46 46 50 50 50 50 64 64 64 64
 64 64 64 49 49 49 49 46 46 46 46 46 46 46 46 46 50 50 50 50
 50 64 64 64 64 64 64 49 49 49 49 49 49 46 46 46 46 46 46 46
 46 50 50 50 50 50 50 64 64 64 64 49 49 49 49 49 49 49 46 46
 46 46 46 46 46 46 50 50 50 50 50 19 19 19 64 49 49 49 49 49
 49 62 62 46 46 46 46 46 46 46 38 50 50 50 50 50 19 19 19 19
 49 49 49 49 49 62 62 62 62 12 46 46 46 38 38 38 50 50 50 50
 19 19 19 19 19 62 62 62 62 62 62 62 62 12 12 12 12 38 38 38
 38 13 13 13 50 19 19 19 19 19 62 62 62 62 62 62 62 62 12 12
 12 12 12 38 38 38 13 13 13 13 19 19 19 19 62 62 62 62 62 62
 62 62 12 12 12 12 12 12 12 38 13 13 13 13 13 67 67 67 77 77
 62 62 62 62 62 62 62 12 12 12 12 12 12 18 18 11 13 11 11 11
 67 67 67 77 77 77 62 62 62 62 72 62 12 12 12 12 12 18 18 18
 11 11 11 11 11 67 67 67 67 77 77 62 62 62 62 39 39 39 12 12
 12 18 18 18 18 11 11 11 11 11 11 67 67 28 28 28 28 62 62 62
 39 39 39 39 39 39 18 18 18 18 82 82 82 82 82 82 82 28 28 28
 28 28 51 37 37 39 39 39 39 39 39 39 18 18 82 82 82 82 82 82
 82 70 70 23 23 23 23 76 39 39 39 39 39 39 39 39 39 39 82 82
 82 82 82 82 82 70 70 70 23 23 23 76 76 39 39 39 39 39 39 39
 39 39 75 82 82 82 82 82 82 82 70 90 90 90 23 76 76 76 76 39
 39 39 39 39 39 39 75 75 75 82 82 82 82 82 82 90 90 90 90 90
 76 76 76 76 39 39 39 39 39 39 75 75 75 75 75 82 82 82 82 90
 90 90 90 90 90 90 76 76 76 39 39 39 39 39 39 75 75 75 75 75
 75 7 7 7 7 90 90 90 90 90 90 76 76 40 40 47 47 31 31 75
 75 75 75 75 75 75 7 7 7 7 7 90 90 90 90 90 40 40 40 40
 47 47 47 31 31 75 75 75 75 75 7 7 7 7 7 7 7 7 90 90
 90 40 40 40 40 47 47 47 31 31 75 75 75 75 75 7 7 7 7 7
 7 7 7 7 7 7 3 40 40 40 47 47 47 31 31 75 75 75 75 75
 7 7 7 7 7 7 7 7 7 7 64 64 3 3 3 3 47 47 31 31
 46 46 46 61 61 61 7 7 7 7 7 7 7 64 64 64 64 3 3 3
 3 33 33 46 46 46 46 46 61 61 61 61 7 7 7 7 7 64 64 64
 64 64 64 3 3 49 49 33 46 46 46 46 46 61 61 61 50 50 50 50
 50 64 64 64 64 64 64 49 49 49 49 49 49 46 46 46 46 46 46 46
 50 50 50 50 50 50 50 64 64 64 64 49 49 49 49 49 49 49 46 46
 46 46 46 46 46 50 50 50 50 50 50 50 64 64 64 49 49 49 49 49
 49 49 49 46 46 46 46 46 46 46 50 50 50 50 50 50 50 19 19 19
 49 49 49 49 49 49 49 49 49 46 46 46 46 38 38 38 50 50 50 50
 50 19 19 19 19 49 49 49 49 49 62 62 62 62 12 12 46 38 38 38
 38 50 50 50 50 19 19 19 19 19 62 62 62 62 62 62 62 62 62 12
 12 12 38 38 38 38 38 50 50 50 19 19 19 19 19 62 62 62 62 62
 62 62 62 12 12 12 12 38 38 38 38 38 50 50 50 19 19 19 19 77
 62 62 62 62 62 62 62 12 12 12 12 12 12 38 38 38 38 11 11 11
 19 67 67 77 77 77 62 62 62 62 62 62 12 12 12 12 12 18 18 18
 11 11 11 11 11 11 67 67 77 77 77 62 62 62 62 62 39 39 12 12
 12 18 18 18 18 11 11 11 11 11 11 67 67 77 77 77 62 62 62 62
 39 39 39 39 39 18 18 18 18 18 11 11 11 11 11 11 67 67 77 77
 77 62 62 62 62 39 39 39 39 39 39 18 18 18 18 11 11 11 11 11
 11 67 67 28 28 28 28 39 39 39 39 39 39 39 39 39 39 18 18 11
 82 82 82 82 82 82 70 23 23 23 23 23 23 39 39 39 39 39 39 39
 39 39 39 82 82 82 82 82 82 82 82 70 23 23 23 23 23 23 39 39
 39 39 39 39 39 39 39 75 75 82 82 82 82 82 82 90 90 90 23 23
 23 23 76 39 39 39 39 39 39 39 39 75 75 75 75 82 82 82 82 82
 90 90 90 90 90 90 78 76 78 39 39 39 39 39 39 75 75 75 75 75
 75 82 82 7 90 90 90 90 90 90 90 78 78 78 78 39 39 39 39 75
 75 75 75 75 75 75 7 7 7 7 90 90 90 90 90 90 78 78 78 78
 47 47 39 39 75 75 75 75 75 75 75 7 7 7 7 7 90 90 90 90
 90 78 78 78 78 47 47 47 39 75 75 75 75 75 75 7 7 7 7 7
 7 7 7 7 7 7 78 78 78 78 52 47 52 31 75 75 75 75 75 75
 7 7 7 7 7 7 7 7 7 7 7 78 78 78 78 52 52 52 31 75
 75 75 75 75 75 7 7 7 7 7 7 7 7 7 7 7 64 3 3 3
 33 33 33 33 33 46 46 46 61 61 61 7 7 7 7 7 7 7 7 7
 64 64 3 3 3 33 33 33 33 33 46 46 46 61 61 61 61 7 7 7
 7 7 7 64 64 64 64 64 3 49 49 33 33 33 33 46 58 58 61 61
 61 50 50 50 50 50 64 64 64 64 64 64 49 49 49 49 49 33 33 33
 46 58 58 46 46 50 50 50 50 50 50 50 64 64 64 64 49 49 49 49
 49 49 49 33 33 46 58 58 46 50 50 50 50 50 50 50 50 50 64 64
 49 49 49 49 49 49 49 49 33 81 46 46 38 38 38 50 50 50 50 50
 50 50 19 19 19 49 49 49 49 49 49 49 49 81 81 81 46 38 38 38
 38 50 50 50 50 50 19 19 19 19 49 49 49 49 49 62 62 62 62 81
 81 38 38 38 38 38 50 50 50 50 50 19 19 19 19 62 62 62 62 62
 62 62 62 62 12 12 38 38 38 38 38 38 50 50 50 19 19 19 19 19
 62 62 62 62 62 62 62 62 12 12 12 12 38 38 38 38 38 11 50 50
 19 19 19 19 62 62 62 62 62 62 62 62 62 12 12 12 12 38 38 38
 38 11 11 11 11 19 67 77 77 77 62 62 62 62 62 62 62 12 12 12
 12 18 18 18 38 11 11 11 11 11 11 67 77 77 77 77 62 62 62 62
 39 39 39 39 39 18 18 18 18 18 11 11 11 11 11 11 67 77 77 77
 77 62 62 62 62 39 39 39 39 39 18 18 18 18 18 11 11 11 11 11
 11 11 77 77 77 77 62 62 62 62 39 39 39 39 39 39 18 18 18 18
 11 11 11 11 11 11 11 23 23 23 23 23 39 39 39 39 39 39 39 39
 39 39 18 18 11 11 11 11 11 11 11 11 23 23 23 23 23 23 39 39
 39 39 39 39 39 39 39 39 11 82 82 82 82 82 82 82 90 23 23 23
 23 23 23 39 39 39 39 39 39 39 39 39 75 75 82 82 82 82 82 82
 90 90 90 23 23 23 23 78 39 39 39 39 39 39 39 39 75 75 75 75
 82 82 82 82 82 90 90 90 90 23 23 78 78 78 39 39 39 39 39 39
 75 75 75 75 75 75 82 82 7 7 90 90 90 90 90 78 78 78 78 78
 39 39 39 39 75 75 75 75 75 75 75 7 7 7 7 7 90 90 90 90
 78 78 78 78 78 52 52 52 39 75 75 75 75 75 75 75 7 7 7 7
 7 7 90 90 90 78 78 78 78 78 52 52 52 52 75 75 75 75 75 75
 75 7 7 7 7 7 7 7 7 7 78 78 78 78 78 52 52 52 52 75
 75 75 75 75 75 7 7 7 7 7 7 7 7 7 7 7 78 78 78 78
 52 52 52 52 75 75 75 75 75 75 7 7 7 7 7 7 7 7 7 7
 7 78 78 78 78 33 33 33 33 33 33 75 75 61 61 61 7 7 7 7
 7 7 7 7 7 7 64 3 3 33 33 33 33 33 33 33 58 58 61 61
 61 50 50 50 7 7 55 55 55 55 64 64 64 33 33 33 33 33 33 33
 33 58 58 58 61 50 50 50 50 50 50 55 55 55 55 64 64 49 49 49
 33 33 33 33 33 33 58 58 58 50 50 50 50 50 50 50 50 50 55 64
 64 49 49 49 49 49 33 33 33 33 33 58 58 58 50 50 50 50 50 50
 50 50 50 55 64 49 49 49 49 49 49 49 33 33 81 81 81 38 38 50
 50 50 50 50 50 50 50 50 50 8 49 49 49 49 49 49 49 49 81 81
 81 81 38 38 38 50 50 50 50 50 50 50 19 19 19 49 49 49 49 49
 62 62 62 81 81 81 81 38 38 38 38 50 50 50 50 50 19 19 19 19
 62 62 62 62 62 62 62 62 62 81 81 38 38 38 38 38 38 50 50 50
 50 19 19 19 19 62 62 62 62 62 62 62 62 62 12 81 38 38 38 38
 38 38 11 50 50 19 19 19 19 62 62 62 62 62 62 62 62 62 12 12
 18 18 38 38 38 38 11 11 11 11 83 83 83 83 77 62 62 62 62 62
 62 62 39 39 39 18 18 18 18 38 11 11 11 11 11 11 83 83 77 77
 62 62 62 62 62 39 39 39 39 39 18 18 18 18 11 11 11 11 11 11
 11 83 83 83 77 62 62 62 62 62 39 39 39 39 39 39 18 18 18 11
 11 11 11 11 11 11 11 83 83 77 62 62 62 62 62 39 39 39 39 39
 39 18 18 18 11 11 11 11 11 11 11 83 23 23 23 23 23 62 39 39
 39 39 39 39 39 39 39 39 11 11 11 11 11 11 11 11 83 83 23 23
 23 23 23 39 39 39 39 39 39 39 39 39 39 11 11 11 11 11 11 11
 11 83 23 23 23 23 23 23 39 39 39 39 39 39 39 39 39 75 75 75
 82 82 82 82 82 90 90 23 23 23 23 23 78 78 39 39 39 39 39 39
 39 75 75 75 75 75 82 82 82 7 90 90 90 90 23 78 78 78 78 78
 39 39 39 39 39 75 75 75 75 75 75 82 7 7 7 90 90 90 90 90
 78 78 78 78 78 52 52 52 39 75 75 75 75 75 75 75 7 7 7 7
 7 90 90 90 78 78 78 78 78 78 52 52 52 52 75 75 75 75 75 75
 75 7 7 7 7 7 7 7 7 7 78 78 78 78 78 52 52 52 52 75
 75 75 75 75 75 75 7 7 7 7 7 7 7 7 7 78 78 78 78 78
 52 52 52 52 75 75 75 75 75 75 75 7 7 7 7 7 7 7 7 7
 78 78 78 78 52 52 52 52 52 75 75 20 20 20 20 7 7 7 7 7
 7 7 7 7 7 7 78 78 78 52 33 33 33 33 33 33 20 20 20 20
 20 7 7 7 7 7 55 55 55 55 55 78 78 33 33 33 33 33 33 33
 33 33 58 20 20 20 50 50 50 7 55 55 55 55 55 55 64 64 33 33
 33 33 33 33 33 33 33 58 58 50 50 50 50 50 50 55 55 55 55 55
 55 49 49 33 33 33 33 33 33 33 33 58 58 58 50 50 50 50 50 50
 50 55 55 55 55 8 49 49 49 33 33 33 33 33 33 33 81 58 58 50
 50 50 50 50 50 50 50 50 8 8 8 49 49 49 49 33 33 33 33 81
 81 81 81 38 50 50 50 50 50 50 50 50 50 8 8 8 8 49 49 49
 49 33 81 81 81 81 81 81 38 38 50 50 50 50 50 50 50 50 8 8
 8 49 49 49 49 62 62 81 81 81 81 81 81 38 38 38 50 50 50 50
 50 50 19 19 8 8 62 62 62 62 62 62 62 81 81 81 81 38 38 38
 38 38 50 50 50 50 83 83 83 83 62 62 62 62 62 62 62 62 81 81
 81 81 38 38 38 38 38 11 50 83 83 83 83 83 83 62 62 62 62 62
 62 62 62 81 81 81 18 38 38 38 38 11 11 11 83 83 83 83 83 83
 62 62 62 62 62 62 62 39 39 39 18 18 18 38 11 11 11 11 11 11
 83 83 83 83 83 83 62 62 62 62 39 39 39 39 39 39 18 18 18 11
 11 11 11 11 11 83 83 83 83 83 83 62 62 62 62 39 39 39 39 39
 39 18 18 18 11 11 11 11 11 11 83 83 83 83 83 83 62 62 62 39
 39 39 39 39 39 39 39 18 11 11 11 11 11 11 11 83 83 83 83 23
 23 23 62 39 39 39 39 39 39 39 39 39 39 11 11 11 11 11 11 11
 11 83 83 83 23 23 23 23 39 39 39 39 39 39 39 39 39 39 11 11
 11 11 11 11 11 11 83 83 23 23 23 23 23 39 39 39 39 39 39 39
 39 39 75 75 75 82 82 82 11 11 14 90 23 23 23 23 78 78 78 39
 39 39 39 39 39 39 75 75 75 75 75 82 82 7 7 90 90 90 90 23
 78 78 78 78 78 39 39 39 39 39 75 75 75 75 75 75 75 7 7 7
 7 90 90 90 78 78 78 78 78 78 52 52 52 39 39 75 75 75 75 75
 75 7 7 7 7 7 7 90 90 78 78 78 78 78 78 52 52 52 52 75
 75 75 75 75 75 75 7 7 7 7 7 7 7 7 78 78 78 78 78 78
 52 52 52 52 75 75 75 75 75 20 20 7 7 7 7 7 7 7 7 7
 78 78 78 78 78 52 52 52 52 20 20 20 20 20 20 20 7 7 7 7
 7 7 7 7 7 78 78 78 78 52 52 52 52 33 20 20 20 20 20 20
 20 7 7 7 7 7 7 55 55 55 5 5 78 78 52 33 33 33 33 33
 33 20 20 20 20 20 20 7 7 7 55 55 55 55 55 55 5 78 33 33
 33 33 33 33 33 33 33 20 20 20 20 20 50 50 7 55 55 55 55 55
 55 5 78 33 33 33 33 33 33 33 33 33 20 20 20 20 50 50 50 50
 55 55 55 55 55 55 55 33 33 33 33 33 33 33 33 33 33 58 58 50
 50 50 50 50 50 50 55 55 55 8 8 8 33 33 33 33 33 33 33 33
 33 81 81 81 50 50 50 50 50 50 50 50 8 8 8 8 8 49 33 33
 33 33 33 33 81 81 81 81 81 50 50 50 50 50 50 50 50 8 8 8
 8 8 8 33 33 33 33 81 81 81 81 81 81 81 38 50 50 50 50 50
 50 50 50 8 8 8 8 71 71 71 71 33 81 81 81 81 81 81 81 38
 38 50 50 50 50 50 50 83 83 8 8 71 71 71 71 71 71 81 81 81
 81 81 81 38 38 38 50 50 50 50 83 83 83 83 83 83 71 71 71 71
 71 71 81 81 81 81 81 81 38 38 38 38 11 83 83 83 83 83 83 83
 83 71 71 71 71 71 71 81 81 81 81 81 81 38 38 38 11 11 11 83
 83 83 83 83 83 83 71 71 71 71 71 71 39 81 81 81 81 18 38 11
 11 11 11 11 83 83 83 83 83 83 83 83 71 71 71 39 39 39 39 39
 39 39 18 11 11 11 11 11 11 83 83 83 83 83 83 83 83 71 71 71
 39 39 39 39 39 39 39 18 11 11 11 11 11 11 11 83 83 83 83 83
 83 83 71 71 71 39 39 39 39 39 39 39 18 11 11 11 11 11 11 11
 83 83 83 83 83 83 83 71 39 39 39 39 39 39 39 39 39 39 11 11
 11 11 11 11 11 11 83 83 83 83 83 83 83 39 39 39 39 39 39 39
 39 39 39 11 11 11 11 11 11 11 11 83 83 23 23 23 23 78 39 39
 39 39 39 39 39 39 39 75 75 75 11 11 11 11 14 14 14 14 14 23
 23 78 78 78 39 39 39 39 39 39 39 75 75 75 75 75 82 11 7 7
 14 14 14 14 14 78 78 78 78 78 39 39 39 39 39 39 75 75 75 75
 75 75 7 7 7 7 7 14 14 14 78 78 78 78 78 52 52 52 39 39
 75 75 75 75 75 75 7 7 7 7 7 7 7 7 78 78 78 78 78 78
 52 52 52 52 20 20 20 20 20 20 20 7 7 7 7 7 7 7 7 78
 78 78 78 78 78 52 52 52 52 20 20 20 20 20 20 20 20 7 7 7
 24 24 7 7 7 78 78 78 78 52 52 52 52 52 20 20 20 20 20 20
 20 20 7 7 24 24 24 7 7 5 5 5 78 78 52 52 52 52 33 20
 20 20 20 20 20 20 20 7 7 24 24 24 55 55 5 5 5 5 5 52
 33 33 33 33 33 20 20 20 20 20 20 20 20 7 7 55 55 55 55 55
 5 5 5 5 33 33 33 33 33 33 33 20 20 20 20 20 20 50 7 7
 55 55 55 55 55 55 5 5 33 33 33 33 33 33 33 33 33 20 20 20
 20 50 50 50 50 36 55 55 55 55 55 5 33 33 33 33 33 33 33 33
 33 33 20 20 20 50 50 50 50 50 36 36 55 55 55 55 55 33 33 33
 33 33 33 33 33 33 81 81 81 50 50 50 50 50 50 36 36 55 8 8
 8 8 33 33 33 33 33 33 33 81 81 81 81 81 50 50 50 50 50 50
 50 50 8 8 8 8 8 8 71 33 33 33 81 81 81 81 81 81 81 17
 17 50 50 50 50 50 50 8 8 8 8 71 71 71 71 71 71 81 81 81
 81 81 81 81 17 17 17 50 50 50 83 83 83 83 83 83 71 71 71 71
 71 71 81 81 81 81 81 81 81 38 17 17 50 50 83 83 83 83 83 83
 83 71 71 71 71 71 71 81 81 81 81 81 81 81 38 38 17 83 83 83
 83 83 83 83 83 83 71 71 71 71 71 71 81 81 81 81 81 81 81 38
 11 11 11 83 83 83 83 83 83 83 83 71 71 71 71 71 71 81 81 81
 81 81 81 38 11 11 11 11 83 83 83 83 83 83 83 83 83 71 71 71
 71 39 39 39 39 39 81 81 11 11 11 11 11 11 83 83 83 83 83 83
 83 83 71 71 71 39 39 39 39 39 39 39 11 11 11 11 11 11 11 83
 83 83 83 83 83 83 83 71 71 71 39 39 39 39 39 39 39 39 11 11
 11 11 11 11 83 83 83 83 83 83 83 83 71 71 39 39 39 39 39 39
 39 39 15 15 11 60 60 60 11 83 83 83 83 83 83 83 83 83 15 15
 39 39 39 39 39 15 15 15 15 11 60 60 11 11 83 14 14 14 14 83
 83 83 78 15 15 39 39 39 39 39 15 15 15 75 75 60 60 11 14 14
 14 14 14 14 14 14 78 78 78 15 39 39 39 39 15 15 15 75 75 75
 75 79 79 14 14 14 14 14 14 14 14 78 78 78 78 39 39 39 39 15
 15 75 75 75 75 75 79 79 7 7 14 14 14 14 14 78 78 78 78 78
 52 52 52 39 20 20 20 20 20 20 20 79 79 7 7 7 24 14 14 78
 78 78 78 78 78 52 52 52 52 20 20 20 20 20 20 20 20 7 24 7
 24 24 24 7 78 78 78 78 78 78 52 52 52 20 20 20 20 20 20 20
 20 20 7 24 24 24 24 24 7 5 5 78 78 78 52 52 52 52 20 20
 20 20 20 20 20 20 20 7 24 24 24 24 24 7 5 5 5 5 5 52
 52 33 33 33 20 20 20 20 20 20 20 20 20 24 24 24 24 24 55 5
 5 5 5 5 5 33 33 33 33 33 20 20 20 20 20 20 20 20 24 24
 55 55 55 55 5 5 5 5 5 33 33 33 33 33 33 33 20 20 20 20
 20 20 20 48 24 55 55 55 55 55 5 5 5 5 33 33 33 33 33 33
 33 33 20 20 20 20 20 50 50 36 36 36 6 6 6 5 5 5 33 33
 33 33 33 33 33 33 33 20 20 20 20 50 50 50 36 36 36 6 6 6
 6 5 33 33 33 33 33 33 33 33 33 81 81 81 17 17 17 50 50 36
 36 36 6 6 6 8 8 33 33 33 33 33 33 33 81 81 81 81 81 17
 17 17 17 50 50 36 36 6 6 8 8 8 71 71 33 33 33 81 81 81
 81 81 81 81 17 17 17 17 17 50 50 36 6 8 8 8 71 71 71 71
 71 81 81 81 81 81 81 81 81 17 17 17 17 17 50 83 83 83 83 83
 83 71 71 71 71 71 71 81 81 81 81 81 81 81 17 17 17 17 17 83
 83 83 83 83 83 83 71 71 71 71 71 71 81 81 81 81 81 81 81 17
 17 17 17 83 83 83 83 83 83 83 83 71 71 71 71 71 71 81 81 81
 81 81 81 81 17 17 11 83 83 83 83 83 83 83 83 83 71 71 71 71
 71 71 71 81 81 81 81 81 81 11 11 11 83 83 83 83 83 83 83 83
 83 83 71 71 71 71 71 39 39 81 81 81 81 11 11 11 11 11 83 83
 83 83 83 83 83 83 83 71 71 71 71 39 39 39 39 39 39 11 11 11
 11 11 11 83 83 83 83 83 83 83 83 83 71 71 71 39 39 39 39 39
 39 39 39 11 11 11 11 11 83 83 83 83 83 83 83 83 83 71 71 71
 15 15 15 15 15 15 15 15 15 60 60 60 60 60 83 83 83 83 83 83
 83 83 83 15 15 15 15 15 15 15 15 15 15 15 60 60 60 60 60 83
 14 14 14 14 14 83 83 15 15 15 15 15 15 15 15 15 15 15 15 60
 60 60 60 14 14 14 14 14 14 14 14 9 9 15 15 15 15 15 15 15
 15 15 15 15 15 79 79 79 79 14 14 14 14 14 14 9 9 9 9 15
 15 15 15 15 15 15 15 20 20 20 79 79 79 79 14 14 14 14 14 14
 9 9 9 9 9 15 15 15 15 20 20 20 20 20 20 20 79 79 79 24
 24 24 14 14 14 9 9 9 9 9 52 52 52 20 20 20 20 20 20 20
 20 79 79 79 24 24 24 24 14 9 9 9 9 9 9 52 52 52 20 20
 20 20 20 20 20 20 20 7 24 24 24 24 24 24 5 9 9 9 9 9
 52 52 52 20 20 20 20 20 20 20 20 20 7 24 24 24 24 24 24 5
 29 5 5 5 5 52 33 33 20 20 20 20 20 20 20 20 20 48 48 48
 24 24 24 43 5 5 5 5 5 5 33 33 33 33 20 20 20 20 20 20
 20 20 48 48 48 48 6 6 6 5 5 5 5 5 33 33 33 33 33 33
 20 20 20 20 20 20 20 20 48 48 6 6 6 6 6 54 54 54 33 33
 33 33 33 33 33 33 20 20 20 20 20 20 20 36 36 36 6 6 6 6
 54 54 54 33 33 33 33 33 33 33 33 33 20 20 20 20 17 50 50 36
 36 6 6 6 6 6 54 33 33 33 33 33 33 33 33 33 81 81 17 17
 17 17 17 17 36 36 6 6 6 6 6 54 33 33 33 33 33 33 33 81
 81 81 81 81 17 17 17 17 17 36 36 6 6 6 6 6 6 71 33 33
 33 33 33 81 81 81 81 81 81 17 17 17 17 17 17 36 6 6 6 6
 71 71 71 71 71 71 81 81 81 81 81 81 81 81 17 17 17 17 17 17
 83 83 83 83 83 83 71 71 71 71 71 71 81 81 81 81 81 81 81 17
 17 17 17 17 83 83 83 83 83 83 83 71 71 71 71 71 71 81 81 81
 81 81 81 81 17 17 17 17 83 83 83 83 83 83 83 83 71 71 71 71
 71 71 81 81 81 81 81 81 81 17 17 17 83 83 83 83 83 83 83 83
 83 71 71 71 71 71 71 44 44 44 81 81 81 81 11 17 83 83 83 83
 83 83 83 83 83 83 83 71 71 71 71 15 44 44 44 44 44 44 60 60
 60 60 83 83 83 83 83 83 83 83 83 83 71 71 71 15 15 15 15 44
 15 15 15 60 60 60 60 60 83 83 83 83 83 83 83 83 83 83 71 71
 15 15 15 15 15 15 15 15 60 60 60 60 60 83 83 83 83 83 83 83
 83 83 83 15 15 15 15 15 15 15 15 15 15 15 60 60 60 60 60 83
 83 83 83 83 53 53 53 15 15 15 15 15 15 15 15 15 15 15 15 60
 60 60 60 60 83 14 14 14 14 53 53 53 53 15 15 15 15 15 15 15
 15 15 15 15 60 60 60 60 65 65 14 14 14 14 14 53 53 9 15 15
 15 15 15 15 15 15 15 15 15 15 79 79 79 65 65 65 14 14 14 14
 9 9 9 9 15 15 15 15 15 15 15 15 15 20 20 79 79 79 79 65
 65 14 14 14 14 9 9 9 9 9 15 15 15 15 15 15 20 20 20 20
 79 79 79 79 24 24 24 14 14 14 9 9 9 9 9 15 15 15 20 20
 20 20 20 20 20 20 79 79 79 24 24 24 24 14 9 9 9 9 9 9
 52 52 20 20 20 20 20 20 20 20 20 20 79 24 24 24 24 24 24 9
 9 9 9 9 9 41 41 20 20 20 20 20 20 20 20 20 20 48 48 48
 24 24 24 43 43 29 29 29 29 29 41 41 20 20 20 20 20 20 20 20
 20 20 48 48 48 48 48 24 43 43 29 29 29 29 29 41 33 33 20 20
 20 20 20 20 20 20 20 48 48 48 48 48 6 6 43 29 29 29 29 33
 33 33 33 33 20 20 20 20 20 20 20 20 48 48 48 48 6 6 6 6
 54 54 54 54 33 33 33 33 33 33 20 20 20 20 20 20 20 48 48 36
 6 6 6 6 6 54 54 54 33 33 33 33 33 33 33 33 20 20 20 20
 17 17 17 36 36 6 6 6 6 6 6 54 54 33 33 33 33 33 33 33
 33 81 81 17 17 17 17 17 17 36 6 6 6 6 6 6 54 54 33 33
 33 33 33 33 81 81 81 81 17 17 17 17 17 17 17 6 6 6 6 6
 6 54 71 33 33 33 33 33 81 81 81 81 81 17 17 17 17 17 17 17
 6 6 6 6 6 6 71 71 71 71 71 33 81 81 81 81 81 81 17 17
 17 17 17 17 17 83 83 83 83 83 83 71 71 71 71 71 71 81 81 81
 81 81 81 17 17 17 17 17 17 83 83 83 83 83 83 83 71 71 71 71
 71 71 81 81 81 81 81 81 81 17 17 17 17 83 83 83 83 83 83 83
 83 71 71 71 71 71 71 81 81 81 81 81 81 81 17 17 17 83 83 83
 83 83 83 83 83 83 22 71 71 71 71 71 44 44 44 44 44 81 81 17
 17 17 83 83 83 83 83 83 83 83 83 22 22 71 71 15 15 44 44 44
 44 44 44 60 60 60 60 60 83 83 83 83 83 83 83 83 22 22 22 71
 15 15 15 44 44 15 15 15 60 60 60 60 60 83 83 83 83 83 83 83
 83 22 22 22 15 15 15 15 15 15 15 15 15 15 60 60 60 60 60 83
 83 83 83 83 83 83 83 22 15 15 15 15 15 15 15 15 15 15 15 60
 60 60 60 60 83 83 83 83 53 53 53 53 15 15 15 15 15 15 15 15
 15 15 15 15 60 60 60 60 60 65 65 14 14 53 53 53 53 53 15 15
 15 15 15 15 15 15 15 15 15 15 60 60 60 65 65 65 14 14 14 53
 53 53 9 15 15 15 15 15 15 15 15 15 15 15 15 79 79 65 65 65
 65 65 14 14 14 9 9 9 9 15 15 15 15 15 15 15 15 15 15 20
 79 79 79 65 65 65 65 14 14 14 9 9 9 9 9 15 15 15 15 15
 15 20 20 20 20 79 79 79 79 65 65 14 14 14 9 9 9 9 9 9
 15 15 15 20 20 20 20 20 20 20 20 79 79 79 24 24 24 24 14 9
 9 9 9 9 9 41 41 41 20 20 20 20 20 20 20 20 20 48 48 24
 24 24 24 24 9 9 9 9 9 9 41 41 41 10 10 10 20 20 20 20
 20 20 48 48 48 48 48 24 43 43 43 29 29 9 41 41 41 41 10 10
 10 20 20 20 20 20 20 48 48 48 48 48 24 43 43 43 29 29 41 41
 41 41 41 10 10 10 20 20 20 20 20 20 48 48 48 48 48 6 43 43
 43 29 29 41 41 41 41 41 41 20 20 20 20 20 20 20 20 48 48 48
 48 6 6 6 6 54 54 54 41 41 41 41 41 33 33 20 20 20 20 20
 20 20 48 48 48 6 6 6 6 6 54 54 54 41 41 41 41 33 33 33
 33 20 20 20 20 17 17 17 17 36 6 6 6 6 6 6 54 54 41 41
 33 33 33 33 33 33 81 81 17 17 17 17 17 17 17 6 6 6 6 6
 6 54 63 41 41 33 33 33 33 81 81 81 81 17 17 17 17 17 17 17
 6 6 6 6 6 6 63 63 63 63 33 33 33 81 81 81 81 81 17 17
 17 17 17 17 17 16 6 6 6 6 6 63 63 63 63 71 33 81 81 81
 81 81 81 17 17 17 17 17 17 16 16 83 83 83 83 83 63 63 63 63
 71 34 81 81 81 81 81 81 17 17 17 17 17 17 16 83 83 83 83 83
 83 22 71 71 71 71 71 81 81 81 81 81 81 81 17 17 17 17 16 83
 83 83 83 83 83 22 22 22 71 71 71 34 44 44 44 81 81 81 81 17
 17 17 17 83 83 83 83 83 83 83 22 22 22 22 71 71 44 44 44 44
 44 44 44 2 2 2 2 2 83 83 83 83 83 83 83 22 22 22 22 22
 15 15 44 44 44 44 44 44 2 2 2 2 2 25 83 83 83 83 83 83
 22 22 22 22 22 15 15 15 44 44 44 15 15 15 2 2 2 2 25 25
 83 83 83 83 83 22 22 22 22 15 15 15 15 15 15 15 15 15 15 60
 60 60 60 25 25 83 83 83 83 83 83 22 22 15 15 15 15 15 15 15
 15 15 15 15 60 60 60 60 25 25 21 21 21 53 53 53 56 56 15 15
 15 15 15 15 15 15 15 15 15 15 60 60 60 25 65 65 21 21 53 53
 53 56 56 15 15 15 15 15 15 15 15 15 15 15 15 60 60 60 65 65
 65 65 14 53 53 53 56 9 15 15 15 15 15 15 15 15 15 15 15 15
 15 79 65 65 65 65 65 14 14 14 9 9 9 9 15 15 15 15 15 15
 15 15 15 15 15 79 79 79 65 65 65 65 14 14 14 9 9 9 9 9
 15 15 15 15 15 15 15 20 20 20 79 79 79 65 65 65 65 14 14 9
 9 9 9 9 9 15 15 15 15 20 20 20 20 20 20 20 79 79 73 73
 24 24 24 14 9 9 9 9 9 9 41 41 41 10 10 10 20 20 20 20
 20 20 48 48 48 48 73 73 43 43 9 9 9 9 9 41 41 41 10 10
 10 10 20 20 20 20 20 48 48 48 48 48 73 43 43 43 9 9 41 41
 41 41 41 10 10 10 10 20 20 20 20 20 48 48 48 48 48 43 43 43
 43 29 41 41 41 41 41 41 41 10 10 20 20 20 20 20 20 48 48 48
 48 48 43 43 43 43 29 41 41 41 41 41 41 41 10 10 20 20 20 20
 20 20 48 48 48 48 6 6 6 43 43 54 41 41 41 41 41 41 41 41
 20 20 20 20 20 20 20 48 48 48 6 6 6 6 6 6 54 41 41 41
 41 41 41 41 41 20 20 20 20 20 17 17 17 17 6 6 6 6 6 6
 6 54 41 41 41 41 41 41 41 41 33 20 20 17 17 17 17 17 17 16
 6 6 6 6 6 6 63 63 41 41 41 41 41 41 81 81 81 81 17 17
 17 17 17 17 16 16 6 6 6 6 6 63 63 63 63 63 41 41 81 81
 81 81 81 17 17 17 17 17 16 16 16 16 6 6 6 63 63 63 63 63
 63 34 34 81 81 81 81 81 17 17 17 17 17 16 16 16 16 83 83 83
 63 63 63 63 63 63 34 34 81 81 81 81 81 17 17 17 17 17 16 16
 16 16 83 83 83 22 63 63 63 63 34 34 34 34 81 81 81 81 17 17
 17 17 16 16 16 83 83 83 83 22 22 22 22 63 63 34 34 34 44 44
 44 81 81 17 17 16 16 16 16 16 83 83 83 83 22 22 22 22 22 22
 15 34 44 44 44 44 44 44 2 2 2 2 2 16 83 83 83 83 83 22