# vtk DataFile Version 2.0
Data set from ImportExport Version 6.5.141.ec284b7a5
ASCII

DATASET RECTILINEAR_GRID
DIMENSIONS 26 26 26
X_COORDINATES 26 float
-3.000000 3.000000 9.000000 15.000000 21.000000 27.000000 33.000000 39.000000 45.000000 51.000000 57.000000 63.000000 69.000000 75.000000 81.000000 87.000000 93.000000 99.000000 105.000000 111.000000 117.000000 
123.000000 129.000000 135.000000 141.000000 147.000000 
Y_COORDINATES 26 float
-3.000000 3.000000 9.000000 15.000000 21.000000 27.000000 33.000000 39.000000 45.000000 51.000000 57.000000 63.000000 69.000000 75.000000 81.000000 87.000000 93.000000 99.000000 105.000000 111.000000 117.000000 
123.000000 129.000000 135.000000 141.000000 147.000000 
Z_COORDINATES 26 float
-3.000000 3.000000 9.000000 15.000000 21.000000 27.000000 33.000000 39.000000 45.000000 51.000000 57.000000 63.000000 69.000000 75.000000 81.000000 87.000000 93.000000 99.000000 105.000000 111.000000 117.000000 
123.000000 129.000000 135.000000 141.000000 147.000000 
CELL_DATA 15625
SCALARS FeatureIds int 1
LOOKUP_TABLE default
 41 41 41 12 12 12 12 12 12 12 84 84 84 3 3 3 3 3 3 3
 3 10 10 82 82 41 41 41 12 12 12 12 12 12 12 84 84 84 84 84
 3 3 3 3 3 10 10 10 82 82 41 41 41 12 12 12 12 12 12 12
 84 84 84 84 84 84 84 84 84 10 10 10 10 82 82 41 41 41 41 12
 12 12 12 12 12 84 84 84 84 84 84 84 84 84 10 10 10 10 10 7
 41 41 41 41 12 12 12 12 12 12 84 84 84 84 84 84 84 84 7 7
 7 7 7 7 7 41 41 41 62 12 12 12 12 12 12 84 84 42 42 42
 84 84 66 7 7 7 7 7 7 7 41 41 41 62 12 12 12 12 12 64
 64 42 42 42 42 42 66 66 7 7 7 7 7 7 7 41 41 41 62 12
 12 50 50 64 64 64 64 42 42 42 66 66 66 7 7 7 7 7 7 7
 63 63 1 1 50 50 50 50 50 64 64 42 42 42 66 66 66 66 66 7
 7 7 7 7 7 63 63 1 1 50 50 50 50 30 30 30 42 42 66 66
 66 66 66 66 7 7 7 7 7 7 63 63 1 1 1 50 50 30 30 30
 30 30 66 66 66 66 66 66 66 7 7 7 7 7 7 63 1 1 1 1
 1 50 30 30 30 30 30 66 66 66 66 66 66 66 51 51 5 5 5 5
 1 1 1 1 1 1 1 30 30 30 30 30 31 31 66 66 66 66 51 51
 51 5 5 5 5 1 1 1 1 1 1 1 30 30 30 30 31 31 31 31
 31 66 66 51 51 51 51 5 5 5 1 1 1 1 1 1 1 33 33 33
 33 33 33 31 31 31 31 51 51 51 51 5 5 5 5 1 1 1 1 1
 1 1 33 33 33 33 33 33 33 33 33 33 51 51 51 51 5 5 5 5
 97 97 97 97 97 97 33 33 33 33 33 33 33 33 33 33 33 68 68 68
 68 68 68 68 68 68 97 97 97 97 97 33 33 33 33 33 33 33 33 33
 33 33 68 68 68 68 68 68 68 68 68 68 97 97 97 97 33 33 33 33
 33 33 33 33 33 33 33 68 68 68 68 68 68 68 68 68 68 97 97 97
 102 102 33 33 33 33 33 33 33 33 33 68 68 68 68 68 68 68 68 68
 68 68 97 102 102 102 102 102 24 33 33 33 33 33 33 3 36 36 36 68
 68 68 68 68 68 68 68 102 102 102 102 102 102 24 33 33 33 33 3 3
 3 36 36 36 68 68 68 68 68 68 68 15 15 102 102 102 102 102 24 33
 33 33 3 3 3 3 3 36 36 36 68 68 68 68 68 15 15 15 15 15
 102 102 102 24 33 33 33 3 3 3 3 3 3 36 36 68 68 68 68 68
 15 15 15 15 15 15 102 102 102 33 3 3 3 3 3 3 3 3 3 3
 68 68 68 68 68 41 41 62 12 12 12 12 12 12 70 84 84 84 84 84
 3 3 3 47 47 10 10 10 82 82 41 62 62 62 62 12 12 12 12 70
 84 84 84 84 84 84 84 84 47 47 10 10 10 82 82 41 62 62 62 62
 12 12 12 12 70 84 84 84 84 84 84 84 84 84 10 10 10 10 82 82
 41 62 62 62 62 62 12 12 12 70 84 84 84 84 84 84 84 84 84 10
 10 10 10 10 82 41 62 62 62 62 62 12 12 12 84 84 84 84 84 84
 84 84 84 84 10 10 10 10 39 7 41 62 62 62 62 62 12 12 12 84
 84 84 84 42 42 84 84 84 7 7 7 7 7 7 7 41 62 62 62 62
 62 12 12 12 64 64 42 42 42 42 42 66 66 7 7 7 7 7 7 7
 63 62 62 62 62 50 50 50 64 64 64 64 42 42 42 42 66 66 7 7
 7 7 7 7 7 63 63 63 63 50 50 50 50 50 64 64 42 42 42 42
 66 66 66 66 7 7 7 7 7 7 63 63 63 63 50 50 50 50 50 30
 30 42 42 42 42 66 66 66 66 7 7 7 7 7 7 63 63 63 63 63
 50 50 50 50 30 30 42 42 66 66 66 66 66 66 7 7 7 7 7 63
 63 63 63 63 1 1 50 30 30 30 30 31 31 31 31 66 66 66 66 51
 51 5 5 63 63 63 63 63 63 1 1 1 30 30 30 30 31 31 31 31
 31 66 66 51 51 51 51 5 5 63 63 63 63 1 1 1 1 30 30 48
 31 31 31 31 31 31 31 51 51 51 51 51 5 5 63 63 63 1 1 1
 1 1 48 48 33 33 31 31 31 31 31 31 51 51 51 51 51 5 5 63
 63 1 1 1 1 1 1 33 33 33 33 33 31 31 31 31 31 51 51 51
 51 51 5 5 63 97 97 97 97 97 97 33 33 33 33 33 33 33 33 33
 33 33 68 68 68 68 68 68 68 68 68 97 97 97 97 97 33 33 33 33
 33 33 33 33 33 33 33 68 68 68 68 68 68 68 68 68 68 97 97 97
 97 33 33 33 33 33 33 33 33 33 33 33 68 68 68 68 68 68 68 68
 68 68 97 97 102 102 102 33 33 33 33 33 33 33 33 36 36 36 68 68
 68 68 68 68 68 68 68 102 102 102 102 102 102 33 33 33 33 33 33 36
 36 36 36 36 68 68 68 68 68 68 68 68 102 102 102 102 102 102 33 33
 33 33 33 3 3 36 36 36 36 36 68 68 68 68 68 68 15 15 102 102
 102 102 102 24 33 33 33 3 3 3 36 36 36 36 36 68 68 68 68 68
 15 15 15 15 102 102 102 102 102 73 33 33 3 3 3 3 36 36 36 36
 68 68 68 68 68 15 15 15 15 15 15 102 102 102 73 73 3 3 3 3
 3 3 3 36 36 68 68 68 68 68 41 62 62 62 62 62 62 70 70 70
 70 84 84 84 84 84 84 47 47 47 47 82 82 82 82 62 62 62 62 62
 62 62 70 70 70 70 84 84 84 84 84 84 84 47 47 82 82 82 82 82
 62 62 62 62 62 62 12 70 70 70 84 84 84 84 84 84 84 84 84 10
 10 10 82 82 82 62 62 62 62 62 62 62 70 70 70 84 84 84 84 84
 84 84 84 84 10 10 10 39 82 82 62 62 62 62 62 62 12 70 70 70
 84 84 84 84 84 84 84 84 84 39 39 39 39 39 82 62 62 62 62 62
 62 62 70 70 70 84 84 84 84 84 84 84 84 100 100 39 39 39 39 39
 62 62 62 62 62 62 62 70 70 70 84 84 42 42 42 42 84 100 100 100
 100 100 39 39 39 63 63 62 62 62 62 50 50 64 64 64 42 42 42 42
 42 66 100 100 100 100 100 7 7 7 63 63 63 63 63 50 50 50 50 64
 64 42 42 42 42 42 66 100 100 100 100 100 7 7 7 63 63 63 63 63
 50 50 50 50 64 64 42 42 42 42 66 66 66 100 100 100 100 7 7 63
 63 63 63 63 63 44 44 44 44 44 30 31 31 31 31 66 66 66 100 100
 100 100 63 63 63 63 63 63 63 63 44 44 44 44 44 30 31 31 31 31
 31 31 66 66 51 51 26 63 63 63 63 63 63 63 63 44 44 44 48 48
 48 31 31 31 31 31 31 31 51 51 51 26 26 63 63 63 63 63 63 63
 44 44 44 48 48 48 31 31 31 31 31 31 31 51 51 51 26 26 63 63
 63 63 63 63 63 44 44 48 48 48 48 31 31 31 31 31 31 31 16 16
 51 26 26 63 63 63 63 63 63 63 44 44 48 48 33 33 31 31 31 31
 31 31 16 16 16 16 26 26 63 63 63 63 63 63 97 97 33 33 33 33
 33 33 33 31 31 31 31 16 16 16 16 68 68 68 63 68 97 97 97 97
 97 33 33 33 33 33 33 33 33 33 33 33 17 17 68 68 68 68 68 19
 68 68 97 97 97 102 78 78 33 33 33 33 33 33 33 33 36 36 68 68
 68 68 68 19 19 68 68 97 102 102 102 102 78 33 33 33 33 33 33 33
 36 36 36 36 68 68 68 68 19 19 68 105 105 102 102 102 102 102 33 33
 33 40 33 40 36 36 36 36 36 36 68 68 68 19 19 105 105 105 102 102
 102 102 102 102 40 40 40 40 40 36 36 36 36 36 36 68 68 68 68 68
 105 105 105 102 102 102 102 102 73 73 73 40 40 40 3 36 36 36 36 36
 36 68 68 68 68 105 105 105 102 102 102 102 102 73 73 73 73 40 84 3
 36 36 36 36 36 36 68 68 68 68 105 105 105 105 105 105 105 73 73 73
 73 73 84 84 84 47 47 47 47 47 47 47 68 68 105 105 105 62 62 62
 62 105 90 90 90 70 84 84 84 84 84 47 47 47 47 47 82 82 82 82
 82 62 62 62 62 62 70 70 90 90 70 84 84 84 84 84 84 84 47 47
 82 82 82 82 82 82 62 62 62 62 62 62 70 70 70 70 84 84 84 84
 84 84 84 84 47 82 82 82 82 82 82 62 62 62 62 62 62 70 70 70
 70 84 84 84 84 84 84 84 84 39 39 39 39 82 82 82 62 62 62 62
 62 62 70 70 70 70 84 84 84 84 84 84 84 84 39 39 39 39 39 82
 82 62 62 62 62 62 62 70 70 70 70 84 84 84 84 84 84 84 100 100
 100 39 39 39 39 82 62 62 62 62 62 62 70 70 70 70 84 84 84 84
 84 84 100 100 100 100 100 39 39 39 63 63 63 62 62 44 44 44 70 70
 70 42 42 42 42 42 84 100 100 100 100 100 39 39 39 63 63 63 63 63
 44 44 44 44 44 64 42 42 42 42 42 66 100 100 100 100 100 100 63 63
 63 63 63 63 63 44 44 44 44 44 44 42 42 42 42 66 66 100 100 100
 100 100 100 63 63 63 63 63 63 63 44 44 44 44 44 44 31 31 31 31
 31 31 100 100 100 100 100 63 63 63 63 63 63 63 63 44 44 44 44 44
 44 31 31 31 31 31 31 31 100 26 26 26 63 63 63 63 63 63 63 63
 44 44 44 48 48 48 31 31 31 31 31 31 31 31 26 26 26 26 63 63
 63 63 63 63 63 44 44 44 48 48 48 31 31 31 31 31 31 31 16 51
 26 26 26 63 63 63 63 63 63 63 44 44 44 48 48 48 31 31 31 31
 31 31 31 16 16 26 26 26 63 63 63 63 63 63 63 44 44 44 48 48
 31 31 31 31 31 31 31 16 16 16 16 26 26 63 63 63 63 63 63 63
 44 44 44 33 33 31 31 31 31 31 31 31 16 16 16 16 16 4 19 63
 63 63 63 63 63 78 78 78 78 33 33 33 33 33 31 31 17 17 17 17
 17 17 19 19 19 68 105 105 105 105 78 78 78 78 33 33 33 33 33 33
 33 17 17 17 17 17 17 19 19 19 105 105 105 105 105 102 78 78 78 40
 40 40 40 40 40 36 36 36 36 17 17 17 19 19 19 105 105 105 105 105
 102 102 27 78 40 40 40 40 40 40 36 36 36 36 36 68 68 19 19 19
 105 105 105 105 105 105 27 27 27 40 40 40 40 40 47 47 36 36 36 36
 47 68 19 19 19 105 105 105 105 105 105 102 27 73 73 40 40 40 40 47
 47 36 36 36 47 47 47 19 19 19 105 105 105 105 105 105 105 73 73 73
 73 40 40 40 47 47 47 47 47 47 47 47 47 19 105 105 105 105 105 105
 105 105 73 73 73 70 70 84 84 84 47 47 47 47 47 47 47 47 105 105
 105 105 105 105 105 105 105 90 90 90 90 70 84 84 84 47 47 47 47 47
 47 82 82 82 82 82 62 62 62 62 62 70 90 90 90 90 70 84 84 84
 84 84 47 47 47 82 82 82 82 82 82 62 62 62 62 62 70 70 70 70
 70 70 84 84 84 84 84 84 47 47 82 82 82 82 82 82 62 62 62 62
 62 70 70 70 70 70 70 84 84 84 84 84 84 84 82 82 82 82 82 82
 82 62 62 62 62 62 70 70 70 70 70 70 84 84 84 84 84 84 84 39
 39 39 39 39 82 82 62 62 62 62 62 70 70 70 70 70 70 84 84 84
 84 84 84 100 100 100 39 39 39 82 82 62 62 62 62 62 70 70 70 70
 70 70 84 84 84 84 84 100 100 100 100 39 39 39 82 63 63 63 62 62
 44 44 70 70 70 70 70 70 84 84 42 100 100 100 100 100 100 39 39 82
 63 63 63 63 44 44 44 44 44 44 70 70 42 42 42 42 100 100 100 100
 100 100 46 46 63 63 63 63 63 63 44 44 44 44 44 44 42 42 42 31
 31 66 100 100 100 100 100 63 63 63 63 63 63 63 63 44 44 44 44 44
 44 31 31 31 31 31 31 59 100 56 56 56 63 63 63 63 63 63 63 63
 44 44 44 44 44 44 31 31 31 31 31 31 31 56 56 56 63 63 63 63
 63 63 63 63 63 44 44 44 44 48 48 31 31 31 31 31 31 31 17 26
 26 26 63 63 63 63 63 63 63 63 44 44 44 44 48 48 31 31 31 31
 31 31 17 17 26 26 26 26 63 63 63 63 63 63 63 44 44 44 44 48
 48 31 31 31 31 31 31 17 17 16 4 4 4 63 63 63 63 63 63 63
 44 44 44 44 48 31 31 31 31 31 31 31 17 17 16 4 4 4 4 63
 63 63 63 63 63 44 44 44 44 33 31 31 31 31 31 31 17 17 17 17
 17 4 4 4 4 63 63 63 63 63 27 27 78 78 78 33 31 31 31 31
 31 17 17 17 17 17 17 4 4 19 105 105 105 105 105 27 27 78 78 78
 40 40 40 40 31 17 17 17 17 17 17 17 19 19 19 105 105 105 105 105
 27 27 27 27 40 40 40 40 40 47 47 47 17 17 17 17 17 19 19 19
 105 105 105 105 105 27 27 27 27 40 40 40 40 40 47 47 47 47 47 17
 17 17 19 19 19 105 105 105 105 105 105 27 27 27 40 40 40 40 40 47
 47 47 47 47 47 47 47 19 19 19 105 105 105 105 105 105 27 27 27 40
 40 40 40 40 47 47 47 47 47 47 47 47 19 19 105 105 105 105 105 105
 105 105 27 27 73 40 40 40 40 47 47 47 47 47 47 47 47 47 105 105
 105 105 105 105 105 105 105 27 90 90 90 70 84 84 47 47 47 47 47 47
 47 47 47 105 105 105 105 105 105 105 105 105 90 90 90 90 70 70 84 84
 47 47 47 47 47 47 82 82 82 82 82 105 105 105 105 105 70 90 90 90
 90 70 70 84 84 84 47 47 47 47 82 82 82 82 82 82 82 62 62 62
 62 70 70 90 70 70 70 70 84 84 84 84 84 47 47 82 82 82 82 82
 82 82 62 62 62 62 70 70 70 70 70 70 70 84 84 84 84 84 84 82
 82 82 82 82 82 82 82 62 62 62 62 70 70 70 70 70 70 70 84 84
 84 84 84 84 82 82 82 82 82 82 82 82 62 62 62 62 70 70 70 70
 70 70 70 84 84 84 84 84 100 100 100 39 39 82 82 82 82 62 62 62
 62 70 70 70 70 70 70 70 84 84 84 84 100 100 100 100 39 39 82 82
 82 63 63 62 62 44 44 44 70 70 70 70 70 84 84 84 84 100 100 100
 100 46 46 46 46 63 63 63 63 44 44 44 44 44 44 70 70 70 23 23
 23 59 59 100 100 100 46 46 46 46 63 63 63 63 44 44 44 44 44 44
 44 44 31 31 31 59 59 59 59 56 56 56 46 46 63 63 63 63 63 44
 44 44 44 44 44 44 44 31 31 31 11 11 59 59 56 56 56 56 63 63
 63 63 63 63 63 44 44 44 44 44 44 31 31 31 31 11 11 11 56 56
 56 56 56 63 63 63 63 63 63 63 44 44 44 44 44 44 31 31 31 31
 31 11 11 17 56 56 56 56 63 63 63 63 63 63 63 44 44 44 44 44
 44 31 31 31 31 31 31 17 17 4 4 4 4 63 63 63 63 63 63 63
 44 44 44 44 44 44 31 31 31 31 31 17 17 17 4 4 4 4 4 63
 63 63 63 63 63 44 44 44 44 44 31 31 31 31 31 31 17 17 17 17
 4 4 4 4 4 63 63 63 63 63 44 44 44 44 44 31 31 31 31 31
 17 17 17 17 17 17 4 4 4 4 63 63 63 63 105 27 27 27 27 27
 40 40 52 52 52 17 17 17 17 17 17 17 4 4 4 105 105 105 105 105
 27 27 27 27 27 40 40 40 40 40 17 17 17 17 17 17 17 17 19 19
 105 105 105 105 105 27 27 27 27 40 40 40 40 40 40 47 17 17 17 17
 17 17 17 19 19 105 105 105 105 105 27 27 27 27 40 40 40 40 40 47
 47 47 17 47 17 17 17 17 19 19 105 105 105 105 105 27 27 27 27 40
 40 40 40 40 47 47 47 47 47 47 17 17 17 105 105 105 105 105 105 105
 105 27 27 27 40 40 40 40 40 47 47 47 47 47 47 47 47 47 105 105
 105 105 105 105 105 105 27 27 27 27 40 40 40 40 47 47 47 47 47 47
 47 47 47 105 105 105 105 105 105 105 105 105 27 90 90 90 70 70 53 47
 47 47 47 47 47 47 47 47 105 105 105 105 105 105 105 105 105 70 90 90
 90 70 70 53 47 47 47 47 47 47 47 82 82 82 105 105 105 105 105 105
 105 70 70 90 90 70 70 70 84 84 84 47 47 47 47 82 82 82 82 82
 82 105 105 71 71 105 70 70 70 70 70 70 70 84 84 84 84 84 47 47
 82 82 82 82 82 82 82 71 71 71 71 70 70 70 70 70 70 70 70 84
 84 84 84 84 82 82 82 82 82 82 82 82 71 71 71 71 70 70 70 70
 70 70 70 70 84 84 84 84 84 82 82 82 82 82 82 82 82 62 62 62
 71 70 70 70 70 70 70 70 70 84 84 84 84 100 46 46 46 82 82 82
 46 46 46 62 62 71 70 70 70 70 70 70 70 70 84 84 84 59 100 46
 46 46 46 46 46 46 46 46 92 92 44 44 44 70 70 70 70 70 23 23
 23 59 59 59 46 46 46 46 46 46 46 46 46 92 44 44 44 44 44 44
 70 70 23 23 23 23 59 59 59 59 46 46 46 46 46 46 63 63 63 44
 44 44 44 44 44 14 14 23 23 23 59 59 59 59 56 56 56 46 46 46
 63 63 63 63 44 44 44 44 44 44 14 14 14 11 11 11 59 59 59 56
 56 56 56 56 63 63 63 63 63 44 44 44 44 44 44 14 14 14 11 11
 11 11 11 59 56 56 56 56 56 63 63 63 63 63 63 44 44 44 44 44
 14 14 31 31 11 11 11 11 56 56 56 56 56 56 63 63 101 63 63 63
 44 44 44 44 44 14 14 31 31 31 31 31 17 17 4 4 4 4 4 63
 101 101 101 63 63 44 44 44 44 44 14 14 31 31 31 31 17 17 17 4
 4 4 4 4 4 63 101 63 63 2 44 44 44 44 44 14 31 31 31 31
 17 17 17 17 17 4 4 4 4 4 63 101 63 2 2 2 2 27 27 44
 14 52 52 52 52 17 17 17 17 17 17 4 4 4 4 63 101 63 63 2
 27 27 27 27 27 27 52 52 52 52 52 17 17 17 17 17 17 4 4 4
 105 105 105 105 27 27 27 27 27 27 27 40 52 52 20 20 17 17 17 17
 17 17 17 4 4 105 105 105 105 105 27 27 27 27 27 40 40 40 40 20
 20 20 17 17 17 17 17 17 4 4 105 105 105 105 105 27 27 27 27 27
 40 40 40 40 47 47 47 47 76 76 76 17 17 17 105 105 105 105 105 105
 27 27 27 27 27 40 40 40 40 47 47 47 47 76 76 76 17 17 105 105
 105 105 105 105 105 105 27 27 27 27 40 40 40 53 53 47 47 47 47 76
 76 76 76 105 105 105 105 105 105 105 105 27 27 27 27 40 40 53 53 53
 47 47 47 47 47 47 47 105 105 105 105 105 105 105 105 105 105 27 27 90
 70 70 53 53 53 47 47 47 47 47 47 47 47 105 105 105 105 105 105 105
 105 105 70 70 70 70 70 70 53 53 47 47 47 47 47 47 82 82 82 105
 105 105 105 105 105 105 105 70 70 70 70 70 70 70 84 47 47 47 47 47
 82 82 82 82 82 82 105 105 71 71 71 70 70 70 70 70 70 70 70 84
 84 84 47 47 47 82 82 82 82 82 82 82 71 71 71 71 70 70 70 70
 70 70 70 70 70 84 84 84 47 82 82 82 82 82 82 82 82 71 71 71
 71 70 70 70 70 70 70 70 70 70 84 84 84 46 46 46 46 82 82 82
 46 46 46 71 71 71 70 70 70 70 70 70 70 70 23 23 23 59 46 46
 46 46 46 46 46 46 46 46 46 71 71 70 70 70 70 70 70 23 23 23
 23 23 59 59 46 46 46 46 46 46 46 46 46 92 92 87 87 70 70 70
 70 70 23 23 23 23 59 59 59 46 46 46 46 46 46 46 46 92 92 92
 44 87 87 87 14 14 23 23 23 23 23 59 59 59 59 46 46 46 46 46
 46 46 92 92 92 44 44 87 44 14 14 14 23 23 23 59 59 59 59 59
 56 56 46 46 46 46 63 92 92 92 44 44 44 44 14 14 14 14 11 11
 11 59 59 59 56 56 56 56 46 46 63 63 63 63 44 44 44 44 44 14
 14 14 14 11 11 11 11 11 59 56 56 56 56 56 46 101 101 101 63 63
 44 44 44 14 14 14 14 14 34 11 11 11 11 11 56 56 56 56 56 63
 101 101 101 101 2 44 44 44 14 14 14 14 14 34 34 31 17 17 17 4
 4 4 4 4 101 101 101 101 2 2 2 44 44 14 14 14 14 14 34 31
 17 17 17 17 4 4 4 4 4 4 101 101 101 2 2 2 2 2 14 14
 14 14 52 52 52 17 17 17 17 17 4 4 4 4 4 101 2 2 2 2
 2 2 2 27 27 14 52 52 52 52 52 17 17 17 17 4 4 4 4 4
 101 2 2 2 2 2 2 27 27 27 27 52 52 52 52 52 17 17 17 17
 17 4 4 4 4 6 6 105 105 2 27 27 27 27 27 27 52 52 52 20
 20 20 17 17 17 17 17 17 4 4 6 6 105 105 105 27 27 27 27 27
 27 40 40 20 20 20 20 17 17 17 17 17 17 4 6 6 6 105 105 105
 27 27 27 27 27 40 40 40 20 20 20 20 47 76 76 76 17 17 17 6
 6 105 105 105 105 27 27 27 27 27 40 40 40 53 53 20 47 47 76 76
 76 76 17 105 105 105 105 105 105 105 105 27 27 27 27 40 40 53 53 53
 47 47 47 76 76 76 76 76 105 105 105 105 105 105 105 105 27 27 27 27
 27 53 53 53 53 47 47 47 47 47 76 76 105 105 105 105 105 105 105 105
 105 105 27 27 70 70 70 53 53 53 47 47 47 47 47 47 47 105 105 105
 105 105 105 105 105 105 105 70 70 70 70 70 70 53 53 47 47 47 47 47
 47 82 82 105 105 105 105 105 105 105 105 105 70 70 70 70 70 70 70 53
 47 47 47 47 47 82 82 82 82 82 105 105 105 71 71 105 70 70 70 70
 70 70 70 70 84 84 84 47 47 47 82 82 82 82 82 46 105 71 71 71
 71 70 70 70 70 70 70 70 70 70 84 84 80 47 46 46 46 46 46 46
 46 46 46 71 71 71 70 70 70 70 70 70 70 70 70 23 23 23 46 46
 46 46 46 46 46 46 46 46 71 71 71 70 95 95 95 95 70 23 23 23
 23 23 23 46 46 46 46 46 46 46 46 46 46 46 92 95 95 95 95 95
 95 23 23 23 23 23 23 59 46 46 46 46 46 46 46 46 46 46 92 92
 87 87 87 95 95 95 23 23 23 23 23 23 59 46 46 46 46 46 46 46
 46 46 92 92 92 87 87 87 87 14 14 23 23 23 23 23 59 59 59 46
 46 46 46 46 46 46 46 92 92 92 92 87 87 87 14 14 14 23 23 23
 23 59 59 59 59 46 46 46 46 46 46 92 92 92 92 87 87 87 14 14
 14 14 14 23 11 11 11 59 59 56 56 56 56 46 46 46 92 92 92 92
 87 87 14 14 14 14 14 14 14 11 11 11 11 59 56 56 56 56 56 46
 101 101 101 63 2 44 14 14 14 14 14 14 14 34 34 11 11 81 11 56
 56 56 56 56 63 101 101 101 2 2 2 2 14 14 14 14 14 34 34 34
 81 81 17 17 4 4 4 4 4 101 101 101 101 2 2 2 2 14 14 14
 14 14 34 34 34 81 81 17 17 4 4 4 4 4 4 101 101 2 2 2
 2 2 2 14 14 14 14 34 34 34 81 17 17 17 17 4 4 4 4 4
 101 2 2 2 2 2 2 2 14 14 14 14 52 52 52 52 17 17 17 17
 4 4 4 4 4 69 2 2 2 2 2 2 2 27 27 27 52 52 52 20
 20 20 17 17 17 17 17 4 4 4 69 69 2 2 2 2 27 27 27 27
 27 52 52 20 20 20 20 17 17 17 17 17 17 4 4 6 6 105 105 105
 27 27 27 27 27 27 40 20 20 20 20 20 20 17 17 17 17 17 4 6
 6 6 105 105 105 27 27 27 27 27 27 40 40 20 20 20 20 20 76 76
 17 17 17 17 6 6 6 105 105 105 27 27 27 27 27 27 40 53 53 20
 20 20 76 76 76 76 17 17 6 6 6 105 105 105 105 105 27 27 27 27
 27 53 53 53 53 47 47 47 76 76 76 76 76 6 6 105 105 105 105 105
 105 27 27 27 27 27 53 53 53 53 47 47 47 47 76 76 76 105 105 105
 105 105 105 105 105 105 105 27 27 70 70 70 53 53 53 47 47 47 47 47
 76 76 105 105 105 105 105 105 105 105 105 105 105 70 70 70 70 70 53 53
 47 47 47 47 47 25 25 55 55 105 105 105 105 105 105 105 105 70 70 70
 70 70 70 70 53 47 47 47 47 25 25 82 55 55 55 105 105 105 105 105
 105 70 70 70 70 70 70 70 38 38 38 80 80 25 25 46 46 46 82 46
 46 46 105 71 71 71 70 70 70 70 70 70 70 38 38 38 80 80 80 46
 46 46 46 46 46 46 46 46 71 71 85 70 95 95 95 95 70 70 23 23
 23 23 80 46 46 46 46 46 46 46 46 46 46 71 71 85 95 95 95 95
 95 95 23 23 23 23 23 23 46 46 46 46 46 46 46 46 46 46 46 92
 85 95 95 95 95 95 23 23 23 23 23 23 23 46 46 46 46 46 46 46
 46 46 46 92 92 87 87 87 95 95 95 23 23 23 23 23 23 23 13 46
 46 46 46 46 46 46 46 92 92 92 87 87 87 87 14 14 23 23 23 23
 23 23 13 13 13 46 46 46 46 46 46 92 92 92 92 87 87 87 87 14
 14 14 23 23 23 23 59 13 13 13 46 46 46 46 46 46 92 92 92 92
 87 87 87 14 14 14 14 14 14 23 11 11 59 13 13 56 56 46 46 46
 46 92 92 92 92 87 87 14 14 14 14 14 14 34 81 81 81 81 13 56
 56 56 56 46 46 101 101 101 2 2 2 14 14 14 14 14 14 34 34 34
 81 81 81 81 56 56 56 56 56 46 101 101 101 2 2 2 2 14 14 14
 14 14 34 34 34 81 81 81 17 4 4 4 4 4 4 101 101 2 2 2
 2 2 14 14 14 14 14 34 34 34 81 81 81 17 4 4 4 4 4 4
 101 2 2 2 2 2 2 2 14 14 14 14 34 34 81 81 81 17 17 17
 4 4 4 4 4 2 2 2 2 2 2 2 2 14 14 14 14 34 52 81
 81 17 17 17 17 17 4 4 4 4 69 2 2 2 2 2 2 2 2 27
 14 52 52 52 20 20 20 17 17 17 17 17 4 4 4 69 69 69 2 2
 2 2 2 27 27 27 20 20 20 20 20 20 20 17 17 17 17 17 4 69
 69 69 69 69 105 27 27 27 27 27 27 27 20 20 20 20 20 20 17 17
 17 17 17 69 69 6 6 69 105 105 27 27 27 27 27 27 27 20 20 20
 20 20 20 17 17 17 17 17 69 6 6 6 6 105 105 105 27 27 27 27
 27 40 53 20 20 20 20 20 76 76 76 17 17 69 69 6 6 6 105 105
 105 27 27 27 27 27 53 53 53 20 20 20 20 76 76 76 17 69 69 69
 69 105 105 105 105 105 105 27 27 27 27 53 53 53 53 47 47 47 47 76
 76 76 69 69 69 105 105 105 105 105 105 105 27 27 27 70 70 53 53 53
 47 47 47 47 47 76 76 105 105 105 105 105 105 105 105 105 105 105 70 70
 70 70 38 38 38 38 47 25 25 25 25 25 55 55 55 105 105 105 105 105
 105 105 70 70 70 70 70 38 38 38 38 25 25 25 25 25 25 55 55 55
 72 72 72 105 105 85 85 85 70 70 70 70 38 38 38 38 80 80 25 25
 25 46 55 55 55 72 72 72 72 85 85 85 85 95 95 70 70 38 38 38
 38 80 80 80 25 46 46 46 46 46 46 72 72 72 85 85 85 85 95 95
 95 95 38 38 38 38 80 80 80 46 46 46 46 46 46 46 46 46 46 85
 85 85 95 95 95 95 95 23 23 23 23 23 80 80 46 46 46 46 46 46
 46 46 46 46 85 85 85 85 95 95 95 23 23 23 23 23 23 13 13 13
 46 46 46 46 46 46 46 46 92 92 87 87 87 87 95 95 23 23 23 23
 23 23 13 13 13 46 46 46 46 46 46 46 92 92 92 87 87 87 87 14
 14 23 23 23 23 28 28 13 13 13 13 46 46 46 46 46 46 92 92 92
 92 87 87 87 14 14 14 23 23 28 28 28 13 13 13 13 46 46 46 46
 46 46 92 92 92 87 87 87 14 14 14 14 14 14 28 28 28 13 13 13
 13 46 46 46 46 46 92 92 92 92 87 14 14 14 14 14 14 14 81 81
 81 81 81 13 13 13 46 46 46 46 101 101 2 2 2 2 14 14 14 14
 14 14 14 81 81 81 81 81 81 81 13 56 56 46 46 101 2 2 2 2
 2 2 14 14 14 14 14 34 34 81 81 81 81 81 4 4 4 4 4 8
 101 2 2 2 2 2 2 14 14 14 14 14 34 34 81 81 81 81 81 4
 4 4 4 4 4 2 2 2 2 2 2 2 2 14 14 14 14 81 81 81
 81 81 81 17 17 4 4 4 4 4 2 2 2 2 2 2 2 2 14 14
 14 14 81 81 81 81 81 17 17 17 17 4 4 4 4 69 2 2 2 2
 2 2 2 2 27 14 14 20 20 20 20 20 17 17 17 17 17 4 4 69
 69 69 69 2 2 2 2 2 27 27 27 20 20 20 20 20 20 20 17 17
 17 17 17 69 69 69 69 69 69 69 27 27 27 27 27 27 93 20 20 20
 20 20 20 17 17 17 17 17 69 69 69 69 69 69 69 27 27 27 27 27
 27 93 20 20 20 20 20 20 17 17 17 17 17 69 69 69 69 69 69 105
 105 27 27 27 27 27 93 20 20 20 20 20 20 76 76 76 17 17 69 69
 69 69 69 69 105 105 27 27 27 27 27 93 53 86 86 86 86 86 76 76
 76 17 69 69 69 69 69 69 105 105 105 105 27 27 27 27 53 53 53 86
 86 86 86 86 76 76 69 69 69 69 69 69 105 105 105 105 105 27 27 27
 70 70 53 53 53 86 86 86 47 47 45 45 69 69 69 69 69 69 105 105
 105 105 85 85 85 70 38 38 38 38 38 25 25 25 25 25 25 55 55 55
 72 72 72 105 105 85 85 85 85 85 70 38 38 38 38 38 25 25 25 25
 25 25 55 55 55 72 72 72 72 85 85 85 85 85 85 85 38 38 38 38
 38 80 80 25 25 25 25 55 55 55 72 72 72 72 85 85 85 85 85 85
 85 38 38 38 38 38 80 80 80 25 46 46 46 46 72 72 72 72 72 85
 85 85 85 85 85 85 38 38 38 38 38 80 80 80 46 46 46 46 46 46
 46 46 72 85 85 85 85 85 85 85 95 85 23 38 38 38 80 80 13 13
 46 46 46 46 46 46 46 46 85 85 85 85 85 85 85 85 23 23 23 23
 23 23 13 13 13 13 46 46 46 46 46 46 46 92 85 85 85 85 85 85
 85 23 23 23 23 23 23 13 13 13 13 46 46 46 46 46 46 92 92 92
 85 85 87 85 14 14 23 23 23 28 28 28 13 13 13 13 46 46 46 46
 46 8 92 92 92 92 87 87 14 14 14 14 14 23 28 28 28 13 13 13
 13 13 46 46 46 8 8 8 8 92 87 87 14 14 14 14 14 14 81 28
 28 28 13 13 13 13 13 46 46 46 8 8 8 8 8 29 29 14 14 14
 14 14 14 81 81 81 81 81 13 13 13 13 46 46 8 8 8 8 8 2
 29 29 14 14 14 14 14 14 81 81 81 81 81 81 13 13 13 13 8 8
 8 8 8 2 2 2 29 29 14 14 14 14 81 81 81 81 81 81 81 81
 4 4 4 8 8 8 2 2 2 2 2 2 29 29 14 14 14 81 81 81
 81 81 81 81 81 4 4 4 4 8 2 2 2 2 2 2 2 29 29 29
 14 14 81 81 81 81 81 81 81 81 4 4 4 4 4 99 2 2 2 2
 2 2 2 29 29 14 14 81 81 81 81 81 81 17 17 17 4 4 4 4
 99 99 2 2 2 2 2 2 29 29 14 14 20 20 20 20 20 17 17 17
 17 17 4 4 69 69 69 69 2 2 2 2 2 27 27 93 93 20 20 20
 20 20 20 17 17 17 17 17 69 69 69 69 69 69 69 2 27 27 27 93
 93 93 93 20 20 20 20 20 17 17 17 17 69 69 69 69 69 69 69 69
 27 27 27 27 93 93 93 93 86 86 86 86 86 86 17 17 17 17 69 69
 69 69 69 69 69 105 27 27 27 93 93 93 93 86 86 86 86 86 86 86
 45 17 17 69 69 69 69 69 69 69 105 27 27 27 93 93 93 93 86 86
 86 86 86 86 45 45 45 69 69 69 69 69 69 69 105 105 105 27 27 93
 93 93 93 86 86 86 86 86 86 45 45 45 69 69 69 69 69 69 69 105
 105 105 27 27 93 93 93 93 86 86 86 86 86 86 45 45 45 45 69 69
 69 69 69 105 105 85 85 85 85 85 85 38 38 38 38 38 25 25 25 25
 25 25 55 55 55 69 72 69 85 85 85 85 85 85 85 85 38 38 38 38
 38 25 25 25 25 25 25 55 55 55 72 72 72 85 85 85 85 85 85 85
 85 38 38 38 38 38 80 80 25 25 25 25 55 55 55 72 72 72 85 85
 85 85 85 85 85 85 85 38 38 38 38 80 80 77 77 25 46 46 46 72
 72 72 72 85 85 85 85 85 85 85 85 85 38 38 38 38 38 80 80 77
 46 46 46 46 46 46 46 85 85 85 85 85 85 85 85 85 85 38 38 38
 38 77 80 13 13 46 46 46 46 46 46 46 46 85 85 85 85 85 85 85
 85 85 23 23 23 23 13 13 13 13 13 46 46 46 46 46 46 46 85 85
 85 85 85 85 85 85 85 23 23 23 23 13 13 13 13 13 13 46 46 46
 46 8 8 8 85 85 85 85 85 85 85 85 23 23 28 28 13 13 13 13
 13 13 46 46 46 8 8 8 8 8 85 85 85 85 14 14 14 14 23 28
 28 28 13 13 13 13 13 13 46 46 8 8 8 8 8 29 29 29 14 14
 14 14 14 81 28 28 13 13 13 13 13 13 13 46 8 8 8 8 8 29
 29 29 29 14 14 14 14 14 81 81 81 81 13 13 13 13 13 13 8 8
 8 8 8 8 29 29 29 29 29 14 14 14 81 81 81 81 81 81 13 13
 13 13 13 8 8 8 8 8 8 29 29 29 29 29 29 14 14 81 81 81
 81 81 81 81 81 13 13 13 8 8 8 8 2 2 2 29 29 29 29 29
 29 14 81 81 81 81 81 81 81 81 4 4 4 8 8 88 99 2 2 2
 2 29 29 29 29 29 29 81 81 81 81 81 81 81 81 4 4 4 4 4
 99 99 99 2 2 2 29 29 29 29 29 29 81 81 81 81 81 81 81 17
 17 4 4 99 99 99 99 99 88 88 88 88 29 29 29 29 29 81 81 20
 20 20 81 17 17 17 17 4 99 99 99 99 88 88 88 88 88 88 29 29
 93 93 93 86 86 86 86 86 17 17 17 17 69 69 69 69 69 69 69 88
 88 88 88 93 93 93 93 93 86 86 86 86 86 86 17 17 17 69 69 69
 69 69 69 69 69 88 88 27 93 93 93 93 93 86 86 86 86 86 86 86
 45 45 69 69 69 69 69 69 69 69 69 27 27 93 93 93 93 93 86 86
 86 86 86 86 86 45 45 45 69 69 69 69 69 69 69 105 27 93 93 93
 93 93 93 86 86 86 86 86 86 45 45 45 45 69 69 69 69 69 69 69
 105 105 93 93 93 93 93 93 86 86 86 86 86 86 45 45 45 45 69 69
 69 69 69 69 69 105 105 79 79 93 93 93 93 86 86 86 86 86 86 45
 45 45 45 69 69 69 69 69 85 85 85 85 85 85 85 85 85 38 38 38
 77 77 77 25 45 45 45 45 45 55 69 72 69 85 85 85 85 85 85 85
 85 85 38 38 38 77 77 77 77 77 77 45 45 55 55 72 72 72 85 85
 85 85 85 85 85 85 85 38 38 38 77 77 77 77 77 77 77 55 55 55
 72 72 85 85 85 85 85 85 85 85 85 85 38 38 38 77 77 77 77 77
 77 77 46 46 72 72 75 85 85 85 85 85 85 85 85 85 85 38 38 38
 77 77 77 77 77 77 46 46 46 46 75 75 85 85 85 85 85 85 85 85
 85 85 83 38 77 77 77 77 77 77 46 46 46 46 46 46 75 85 85 85
 85 85 85 85 85 85 83 83 83 77 77 13 13 13 13 13 13 46 46 46
 46 46 85 85 85 85 85 85 85 85 85 83 83 83 23 13 13 13 13 13
 13 13 13 46 46 8 8 8 85 85 85 85 85 85 85 85 83 83 23 28
 13 13 13 13 13 13 13 13 46 46 8 8 8 8 85 85 85 85 85 85
 85 14 83 35 28 13 13 13 13 13 13 13 13 13 8 8 8 8 8 8
 29 29 29 29 29 29 14 14 81 81 81 13 13 13 13 13 13 13 8 8
 8 8 8 8 29 29 29 29 29 29 29 29 14 81 81 81 81 13 13 13
 13 13 13 8 8 8 8 8 8 29 29 29 29 29 29 29 29 81 81 81
 81 81 81 13 13 13 13 13 8 8 8 8 8 8 29 29 29 29 29 29
 29 29 81 81 81 81 81 81 81 13 13 13 13 8 8 8 8 88 88 29
 29 29 29 29 29 29 29 81 81 81 81 81 81 81 96 96 96 96 8 8
 88 88 88 88 88 29 29 29 29 29 29 29 81 81 81 81 81 81 81 81
 96 96 96 88 88 99 99 88 88 88 88 29 29 29 29 29 29 81 81 81
 81 81 81 96 96 17 96 88 88 88 99 99 99 88 88 88 88 29 29 29
 29 29 93 81 86 81 86 81 96 17 17 88 88 88 88 99 99 88 88 88
 88 88 88 29 29 93 93 93 86 86 86 86 86 86 17 17 88 88 88 88
 69 69 88 88 88 88 88 88 93 93 93 93 93 86 86 86 86 86 86 18
 45 45 69 69 69 69 69 69 69 88 88 88 88 93 93 93 93 93 86 86
 86 86 86 86 86 45 45 45 69 69 69 69 69 69 69 88 88 79 93 93
 93 93 93 86 86 86 86 86 86 45 45 45 45 69 69 69 69 69 69 69
 69 79 79 93 93 93 93 93 86 86 86 86 86 86 45 45 45 45 45 69
 69 69 69 69 69 69 79 79 79 93 93 93 93 86 86 86 86 86 86 45
 45 45 45 45 69 69 69 69 69 69 105 79 79 79 79 93 93 93 86 86
 86 86 86 45 45 45 45 45 45 69 69 69 69 85 85 85 85 85 85 85
 85 85 77 77 77 77 77 77 77 45 45 45 45 45 45 69 75 85 85 85
 85 85 85 85 85 85 85 38 77 77 77 77 77 77 77 77 45 45 45 45
 72 75 85 85 85 85 85 85 85 85 85 85 38 38 77 77 77 77 77 77
 77 77 45 45 45 75 75 85 85 85 85 85 85 85 85 85 85 85 38 77
 77 77 77 77 77 77 77 77 77 72 75 75 75 85 85 85 85 85 85 85
 85 85 85 38 77 77 77 77 77 77 77 77 77 46 75 75 75 75 85 85
 85 85 85 85 85 85 83 83 83 77 77 77 77 77 77 77 46 46 46 75
 75 75 75 85 85 85 85 85 85 85 83 83 83 83 77 77 77 77 13 13
 13 13 13 46 46 75 75 75 85 85 85 85 85 85 85 83 83 83 83 23
 13 13 13 13 13 13 13 13 46 46 8 8 8 85 85 85 85 85 85 104
 83 83 83 35 35 13 13 13 13 13 13 13 13 13 46 8 8 8 8 85
 85 85 85 104 104 104 83 35 35 35 13 13 13 13 13 13 13 13 13 8
 8 8 8 8 29 29 29 29 104 104 29 29 35 35 35 13 13 13 13 13
 13 13 13 8 8 8 8 8 8 29 29 29 29 29 29 29 29 29 81 81
 81 13 13 13 13 13 13 13 8 8 8 8 8 8 29 29 29 29 29 29
 29 29 29 81 81 81 81 96 13 13 13 13 13 8 8 8 8 8 29 29
 29 29 29 29 29 29 29 29 81 81 81 81 96 96 96 96 96 96 8 8
 88 88 88 88 29 29 29 29 29 29 29 29 29 81 81 81 81 96 96 96
 96 96 96 8 8 88 88 88 88 88 29 29 29 29 29 29 29 29 81 81
 81 96 96 96 96 96 96 96 88 88 88 88 88 88 88 88 88 29 29 29
 29 29 29 81 81 81 96 96 96 96 96 96 88 88 88 88 99 88 88 88
 88 88 88 29 29 29 29 29 86 86 86 86 96 96 96 96 88 88 88 88
 88 88 88 88 88 88 88 88 88 29 93 93 93 86 86 86 86 86 86 18
 18 88 88 88 88 88 88 88 88 88 88 88 88 88 93 93 93 93 86 86
 86 86 86 86 18 18 45 45 88 88 69 69 88 88 88 88 88 88 79 93
 93 93 93 86 86 86 86 86 86 18 45 45 45 88 69 69 69 69 69 88
 88 88 79 79 93 93 93 93 86 86 86 86 86 86 45 45 45 45 45 69
 69 69 69 69 69 69 79 79 79 79 93 93 93 86 86 86 86 86 86 45
 45 45 45 45 69 69 69 69 32 32 32 79 79 79 79 93 93 93 86 86
 86 86 86 45 45 45 45 45 45 45 69 69 69 32 32 32 79 79 79 79
 79 93 93 86 86 86 86 77 45 45 45 45 45 45 45 69 69 85 85 85
 85 85 79 79 79 79 79 77 77 77 77 77 77 77 45 45 45 45 45 45
 75 75 85 85 85 85 85 85 85 85 85 85 21 77 77 77 77 77 77 77
 77 45 45 45 45 75 75 85 85 85 85 85 85 85 85 85 85 21 21 77
 77 77 77 77 77 77 77 45 45 45 75 75 85 85 85 85 85 85 85 85
 85 85 21 21 77 77 77 77 77 77 77 77 77 103 103 75 75 75 85 85
 85 85 85 85 85 85 85 85 38 77 77 77 77 77 77 77 77 77 103 75