# vtk DataFile Version 2.0
Data set from IO Version 6.4.197.9a0dee2
ASCII

DATASET RECTILINEAR_GRID
DIMENSIONS 31 31 31
X_COORDINATES 31 float
-4.416667 4.416667 13.250000 22.083334 30.916666 39.749996 48.583332 57.416664 66.250000 75.083336 83.916664 92.750000 101.583336 110.416664 119.250000 128.083328 136.916656 145.749985 154.583328 163.416656 172.249985 
181.083328 189.916656 198.749985 207.583328 216.416656 225.249985 234.083313 242.916656 251.749985 260.583344 
Y_COORDINATES 31 float
-4.416667 4.416667 13.250000 22.083334 30.916666 39.749996 48.583332 57.416664 66.250000 75.083336 83.916664 92.750000 101.583336 110.416664 119.250000 128.083328 136.916656 145.749985 154.583328 163.416656 172.249985 
181.083328 189.916656 198.749985 207.583328 216.416656 225.249985 234.083313 242.916656 251.749985 260.583344 
Z_COORDINATES 31 float
-4.416667 4.416667 13.250000 22.083334 30.916666 39.749996 48.583332 57.416664 66.250000 75.083336 83.916664 92.750000 101.583336 110.416664 119.250000 128.083328 136.916656 145.749985 154.583328 163.416656 172.249985 
181.083328 189.916656 198.749985 207.583328 216.416656 225.249985 234.083313 242.916656 251.749985 260.583344 
CELL_DATA 27000
SCALARS FeatureIds int 1
LOOKUP_TABLE default
 201 201 201 225 225 2 2 2 2 159 159 156 344 344 344 344 344 390 390 390
 390 390 390 390 372 372 372 372 253 253 201 201 201 201 201 167 167 167 167 159
 156 156 215 215 215 215 390 390 390 390 390 390 390 390 306 306 306 306 253 201
 201 201 201 201 163 167 167 167 167 85 290 290 215 215 215 215 215 390 390 390
 390 390 390 390 306 306 306 306 306 201 201 201 201 163 163 163 167 167 167 85
 290 290 215 215 215 215 215 183 183 183 390 390 390 390 306 306 306 306 306 201
 355 355 355 163 163 163 163 167 167 85 290 290 290 215 215 215 215 183 183 183
 183 390 390 306 306 306 306 306 306 355 355 355 355 163 163 163 163 167 167 97
 290 290 290 215 215 215 238 238 183 183 183 390 390 15 15 306 306 306 355 355
 355 355 355 163 163 163 163 167 97 97 97 335 335 335 335 335 238 238 238 238
 52 52 52 15 15 15 15 15 355 355 355 355 355 355 163 396 396 396 97 97
 97 335 335 335 335 335 238 238 238 238 52 52 52 15 15 15 15 15 355 355
 355 355 355 355 396 396 396 97 97 97 97 335 335 335 335 335 238 238 238 308
 52 52 52 15 15 15 15 15 355 355 355 355 355 355 205 205 205 205 97 97
 335 335 335 335 335 335 335 308 308 308 308 174 174 15 15 15 15 15 355 355
 355 355 355 205 205 205 205 205 205 335 335 335 335 335 335 335 335 308 308 308
 174 174 174 174 164 164 164 164 322 355 355 355 265 205 205 205 205 205 205 349
 349 349 335 335 335 335 335 308 308 308 174 174 174 164 164 164 164 164 164 322
 322 265 265 265 205 205 205 175 175 175 349 349 349 349 335 335 308 308 308 308
 174 174 174 164 164 164 164 165 165 165 265 265 265 265 265 265 175 175 175 175
 349 349 349 349 335 335 308 308 308 308 308 174 164 164 164 164 164 165 165 165
 252 265 265 265 265 265 175 175 175 175 349 349 349 349 349 210 210 204 204 204
 204 204 22 22 164 164 164 164 164 164 222 265 265 265 265 265 175 175 175 175
 175 349 349 349 192 210 210 210 204 204 204 204 22 22 22 164 164 164 164 222
 222 222 125 125 125 125 295 295 175 21 21 21 192 192 192 210 210 210 204 204
 204 204 22 22 22 164 164 164 222 222 222 222 125 125 125 125 295 295 21 21
 21 192 192 192 192 210 210 210 204 204 204 204 356 356 356 356 45 45 222 222
 222 222 125 125 125 125 122 122 21 21 21 192 192 192 192 192 210 210 204 204
 204 204 356 356 356 356 45 45 45 222 222 128 128 125 125 125 122 122 122 21
 192 192 192 192 192 192 192 204 204 204 204 356 356 356 356 356 45 45 45 45
 128 128 128 128 36 36 122 122 122 122 192 192 192 192 192 192 192 204 204 204
 204 356 356 356 356 356 45 45 45 45 128 128 128 128 36 36 36 36 122 192
 192 192 192 192 192 192 192 26 204 204 204 356 285 285 285 356 116 116 116 116
 128 128 128 128 36 36 36 36 202 69 69 69 192 192 192 192 26 26 26 26
 26 356 285 285 285 116 116 116 116 116 87 87 87 87 87 36 202 202 202 202
 69 69 69 192 192 26 26 26 26 26 26 120 120 120 120 116 116 116 116 116
 87 87 87 87 31 31 202 202 202 202 69 69 69 69 26 26 26 26 26 26
 26 120 120 120 120 120 116 116 116 87 87 87 87 87 31 31 202 202 202 202
 69 69 69 69 35 26 26 26 26 26 26 120 120 120 120 120 116 116 116 87
 87 87 87 87 31 31 202 202 202 202 202 211 35 35 35 99 26 26 26 26
 26 120 120 120 120 120 116 116 87 87 87 87 87 87 31 31 202 202 202 202
 159 211 35 35 99 99 99 26 26 255 255 120 120 120 120 120 120 116 87 87
 253 87 225 225 225 2 2 2 2 159 159 344 344 344 99 99 99 26 255 255
 255 390 390 120 372 372 372 372 253 253 253 201 225 225 225 2 2 2 2 159
 159 344 344 344 344 344 99 26 255 390 390 390 390 390 372 372 372 253 253 253
 253 201 225 225 225 2 2 2 2 2 156 156 344 344 344 344 344 390 390 390
 390 390 390 390 390 372 372 253 253 253 201 201 201 201 225 167 167 167 167 156
 156 156 156 215 215 215 215 390 390 390 390 390 390 390 390 306 306 253 253 253
 201 201 201 201 167 167 167 167 167 85 156 156 215 215 215 215 215 183 183 183
 390 390 390 390 306 306 306 306 253 253 201 201 201 163 163 163 167 167 167 85
 85 290 215 215 215 215 215 183 183 183 183 390 390 390 306 306 306 306 306 253
 355 355 355 163 163 163 163 167 167 85 85 290 215 215 215 215 215 183 183 183
 183 390 390 390 306 306 306 306 306 355 355 355 355 163 163 163 163 167 167 97
 97 290 215 215 215 215 238 238 183 183 183 390 390 15 15 334 334 334 355 355
 355 355 355 163 163 163 163 167 97 97 97 335 335 335 335 335 238 238 238 183
 52 52 52 15 15 15 15 15 355 355 355 355 355 355 396 396 396 396 97 97
 97 335 335 335 335 335 238 238 238 238 52 52 52 15 15 15 15 15 355 355
 355 355 355 355 396 396 396 396 97 97 97 335 335 335 335 335 238 238 238 308
 52 52 52 15 15 15 15 15 355 355 355 355 355 355 205 205 205 205 97 97
 335 335 335 335 335 335 335 308 308 308 308 308 52 15 15 15 15 15 355 355
 322 355 355 355 205 205 205 205 205 97 335 335 335 335 335 335 335 308 308 308
 308 308 174 174 164 164 15 322 322 322 322 265 265 265 205 205 205 205 205 349
 349 335 335 335 335 335 308 308 308 308 308 308 174 164 164 164 165 165 322 322
 322 265 265 265 265 205 205 175 175 175 349 349 349 335 335 335 308 308 308 308
 308 308 308 164 164 164 165 165 165 322 252 265 265 265 265 265 175 175 175 175
 349 349 349 349 335 335 308 308 308 308 308 308 308 164 164 164 165 165 165 252
 252 265 265 265 265 265 175 175 175 175 175 349 349 349 349 210 210 308 308 308
 308 308 22 22 22 164 164 165 252 252 252 252 265 265 265 265 175 175 175 175
 175 349 349 349 192 210 210 210 204 204 204 22 22 22 22 164 164 164 252 252
 222 222 125 125 125 125 295 295 175 21 21 21 192 192 192 210 210 210 204 204
 204 204 22 22 22 164 164 222 222 222 222 222 222 125 125 125 295 295 295 21
 21 192 192 192 192 210 210 210 204 204 204 204 356 356 356 356 45 45 222 222
 222 222 222 125 125 125 295 295 295 21 192 192 192 192 192 192 210 210 204 204
 204 356 356 356 356 356 45 45 45 222 222 128 128 125 125 36 122 122 122 21
 192 192 192 192 192 192 192 204 204 204 204 356 356 356 356 356 45 45 45 222
 128 128 128 128 36 36 36 36 122 46 192 192 192 192 192 192 192 204 204 204
 389 356 356 356 356 356 45 45 45 222 128 128 128 128 36 36 36 36 46 46
 192 192 192 192 192 192 192 26 26 389 389 389 356 356 356 356 116 116 116 128
 128 128 128 128 36 36 36 36 46 46 46 69 192 192 192 192 26 26 26 26
 26 389 389 356 60 116 116 116 116 116 87 87 87 87 36 36 36 36 211 211
 211 211 69 192 38 26 26 26 26 26 26 26 120 120 60 116 116 116 116 116
 87 87 87 87 31 31 31 202 211 211 211 211 69 69 26 26 26 26 26 26
 26 26 120 120 120 116 116 116 116 116 87 87 87 87 31 31 31 202 211 211
 211 211 211 211 26 26 26 26 26 26 26 120 120 120 120 120 116 116 116 87
 87 87 87 87 31 31 31 202 211 211 211 211 211 99 99 99 26 26 26 26
 26 120 120 120 120 120 116 116 87 87 87 87 87 87 31 31 2 2 211 211
 211 211 344 344 99 99 99 26 26 26 26 120 120 120 120 120 120 253 253 253
 253 87 225 225 225 2 2 2 2 2 159 344 344 344 344 99 99 26 26 368
 390 390 390 120 372 372 372 253 253 253 253 253 225 225 225 2 2 2 2 2
 156 344 344 344 344 344 99 368 368 390 390 390 390 390 372 372 372 253 253 253
 253 201 266 266 266 2 2 2 2 156 156 156 156 344 344 344 344 368 368 368
 390 390 390 390 390 390 101 101 253 253 201 201 201 266 266 167 167 167 156 156
 156 156 156 156 215 215 352 183 183 390 390 390 390 390 390 306 101 101 101 101
 201 201 201 201 167 167 167 167 167 156 156 156 156 215 215 215 352 183 183 183
 390 390 390 390 390 306 101 101 101 101 355 355 355 163 163 163 167 167 167 85
 156 156 215 215 215 215 352 183 183 183 183 390 390 390 334 334 334 101 101 101
 355 355 355 163 163 163 163 167 167 85 156 156 215 215 215 215 352 183 183 183
 183 390 390 334 334 334 334 334 334 355 355 355 355 163 163 163 163 163 167 97
 156 156 215 215 215 215 352 183 183 183 183 390 390 334 334 334 334 334 334 355
 355 355 355 355 163 163 163 163 97 97 97 335 335 335 335 335 238 238 238 183
 52 52 52 15 15 334 334 334 355 355 355 355 355 355 396 396 396 396 97 97
 97 335 335 335 335 335 238 238 238 238 52 52 52 15 15 15 15 15 355 355
 355 355 355 355 224 396 224 224 97 97 97 335 335 335 335 335 238 238 238 308
 52 52 52 15 15 15 15 15 355 355 355 355 355 355 224 224 224 224 97 97
 335 335 335 335 335 335 335 308 308 308 308 308 308 15 15 15 15 15 322 322
 322 322 355 355 205 205 205 205 297 335 335 335 335 335 335 335 308 308 308 308
 308 308 308 308 15 15 15 322 322 322 322 322 265 265 205 205 205 205 319 63
 63 63 335 335 335 335 308 308 308 308 308 308 308 308 164 165 165 322 322 322
 322 322 265 265 265 205 319 319 319 63 63 63 63 63 335 335 308 308 308 308
 308 308 308 298 298 165 165 165 322 322 252 265 265 265 265 265 319 319 319 63
 63 63 63 63 335 308 308 308 308 308 308 308 298 298 298 165 165 165 165 252
 252 252 265 265 265 265 319 319 175 175 63 63 63 63 377 377 308 308 308 308
 308 308 22 22 22 164 165 165 252 252 252 252 265 265 265 187 187 187 175 175
 63 63 63 63 377 210 210 210 204 204 204 22 22 22 22 164 164 252 252 252
 252 252 252 125 125 187 187 187 187 187 21 63 63 136 192 210 210 210 204 204
 204 204 22 22 22 22 252 252 252 252 222 222 222 125 125 187 187 187 187 187
 21 192 192 192 192 210 210 210 204 204 204 356 356 356 356 356 45 45 222 222
 222 222 222 228 125 187 187 187 187 187 192 192 192 192 192 199 199 199 199 204
 204 356 356 356 356 356 45 45 45 222 222 128 128 228 36 36 36 36 187 46
 192 192 192 192 192 199 199 199 199 199 214 214 356 356 356 356 45 45 45 222
 128 128 128 36 36 36 36 36 46 46 46 192 192 192 192 199 199 199 199 389
 389 389 356 356 356 356 45 45 45 222 128 128 128 36 36 36 36 36 46 46
 46 46 192 192 192 199 199 199 199 389 389 389 389 356 356 60 116 116 116 116
 128 128 128 36 36 36 36 36 46 46 46 46 192 38 38 38 26 26 26 26
 389 389 389 389 60 60 116 116 116 116 111 111 111 36 36 36 36 36 211 211
 211 211 211 38 38 38 26 26 26 26 26 26 389 60 60 60 116 116 116 116
 111 111 111 111 31 31 31 211 211 211 211 211 211 38 38 38 26 26 26 26
 26 26 120 60 60 60 116 116 116 116 111 111 111 111 31 31 31 211 211 211
 211 211 211 38 38 38 26 26 26 26 26 26 120 120 60 60 116 116 116 111
 111 111 111 111 31 31 31 211 211 211 211 211 211 99 99 99 26 26 26 26
 26 26 120 120 120 120 116 116 116 111 111 111 111 111 31 31 2 211 211 211
 211 211 344 344 99 99 99 26 26 26 26 26 120 120 120 121 121 88 253 253
 253 111 266 266 266 2 2 2 2 211 156 156 344 344 344 99 99 26 368 368
 368 390 390 390 121 121 121 253 253 253 253 253 266 266 266 2 2 2 2 2
 156 156 344 344 344 344 99 368 368 368 368 390 390 390 390 121 121 253 253 253
 253 266 266 266 266 266 2 2 2 156 156 156 156 156 156 156 368 368 368 368
 368 390 390 390 390 101 101 101 101 101 101 66 66 266 266 167 167 167 156 156
 156 156 156 156 156 352 352 368 368 368 390 390 390 390 390 101 101 101 101 101
 66 66 66 66 163 167 167 167 156 156 156 156 156 156 352 352 352 183 183 183
 390 390 390 390 390 101 101 101 101 101 66 66 66 66 163 163 167 167 167 156
 156 156 156 215 352 352 352 183 183 183 183 390 390 390 334 334 334 101 101 66
 66 66 66 163 163 163 163 167 167 156 156 156 156 215 352 352 352 183 183 183
 183 390 384 384 334 334 334 334 101 66 355 355 355 163 163 163 163 163 167 156
 156 156 156 215 352 352 352 183 183 183 183 384 384 384 334 334 334 334 393 393
 355 355 355 355 163 163 288 288 97 97 97 113 335 335 335 352 238 238 238 183
 52 52 384 384 334 334 334 334 393 393 355 355 355 355 224 224 224 224 97 97
 97 335 335 335 335 335 238 238 238 308 52 52 52 15 15 15 15 393 393 393
 355 355 355 224 224 224 224 224 97 97 97 335 335 335 335 335 308 308 308 308
 308 308 362 362 15 15 15 393 393 393 322 355 355 224 224 224 224 224 297 297
 297 335 335 335 335 335 308 308 308 308 308 308 362 362 362 15 15 322 322 322
 322 322 355 224 224 224 224 224 297 297 297 335 335 335 335 335 308 308 308 308
 308 308 308 362 362 230 230 322 322 322 322 322 265 224 224 224 224 319 297 297
 297 63 63 335 335 335 308 308 308 308 308 308 308 362 362 230 230 322 322 322
 322 322 265 265 265 319 319 319 319 297 63 63 63 63 377 377 308 308 308 308
 308 308 298 298 298 165 165 322 322 322 252 252 265 265 265 319 319 287 319 63
 63 63 63 63 377 377 377 308 308 308 308 308 298 298 298 165 165 165 252 252
 252 252 265 265 265 319 319 319 319 63 63 63 63 63 377 377 377 308 308 308
 308 308 298 298 298 164 165 252 252 252 252 252 171 171 171 187 187 187 187 63
 63 63 63 63 377 377 377 308 308 308 308 367 367 367 367 367 252 252 252 252
 252 252 252 171 187 187 187 187 187 187 63 63 136 136 136 199 199 199 199 204
 204 367 367 367 367 367 252 252 252 252 252 252 228 228 228 187 187 187 187 187
 187 136 136 136 136 199 199 199 199 199 204 356 356 356 356 356 252 252 252 252
 55 55 228 228 228 228 187 187 187 187 187 192 192 136 136 199 199 199 199 199
 214 214 356 356 356 356 45 45 55 55 55 55 353 228 228 228 187 187 187 46
 46 192 192 192 199 199 199 199 199 199 214 214 214 356 356 356 45 45 55 55
 55 353 353 353 353 36 36 36 46 46 46 46 192 192 199 199 199 199 199 389
 389 389 389 356 356 356 45 45 55 55 55 353 353 353 36 36 36 36 46 46
 46 46 46 192 199 199 199 199 199 389 389 389 389 389 60 60 60 116 116 55
 353 353 353 353 36 36 36 36 46 46 46 46 38 38 38 38 38 26 26 389
 389 389 389 389 60 60 60 116 116 116 111 111 111 353 36 36 36 13 211 211
 211 211 38 38 38 38 38 26 26 26 26 389 389 60 60 60 60 116 116 116
 111 111 111 111 36 36 13 211 211 211 211 211 38 38 38 38 38 26 26 26
 26 26 389 60 60 60 60 116 116 111 111 111 111 111 31 31 31 211 211 211
 211 211 211 38 38 38 26 26 26 26 26 26 26 60 60 60 60 116 116 111
 111 111 111 111 31 31 31 211 211 211 211 211 211 38 38 38 26 26 26 26
 26 26 121 121 121 121 121 88 88 111 111 111 111 266 266 31 211 211 211 211
 211 211 211 344 99 99 26 26 26 26 368 368 121 121 121 121 121 88 88 88
 253 266 266 266 266 266 2 2 211 211 156 156 156 344 344 99 99 368 368 368
 368 368 390 121 121 121 121 88 88 88 253 266 266 266 266 266 2 2 2 156
 156 156 156 156 344 344 368 368 368 368 368 390 390 390 121 121 121 88 101 253
 66 66 266 266 266 266 93 2 156 156 156 156 156 156 156 352 352 368 368 368
 368 390 390 390 390 101 101 101 101 101 66 66 66 66 266 266 93 93 156 156
 156 156 156 156 352 352 352 352 368 368 390 390 390 390 390 101 101 101 101 101
 66 66 66 66 66 288 167 167 156 156 156 156 156 352 352 352 352 352 183 183
 390 390 390 390 334 101 101 101 101 101 66 66 66 66 288 288 288 288 167 156
 156 156 156 352 352 352 352 352 352 183 183 390 384 384 334 334 334 101 101 66
 66 66 66 66 288 288 288 288 288 156 156 156 156 352 352 352 352 352 352 183
 183 384 384 384 334 334 334 334 101 66 66 66 66 288 288 288 288 288 288 113
 113 156 352 352 352 352 352 352 183 183 384 384 384 384 384 334 334 334 393 393
 393 393 355 288 288 288 288 288 288 113 113 113 113 352 352 352 352 352 4 4
 384 384 384 384 384 334 334 393 393 393 393 393 355 224 224 224 224 224 224 97
 113 113 113 335 335 335 4 4 4 4 308 384 384 384 384 334 334 393 393 393
 393 393 224 224 224 224 224 224 224 297 113 113 113 335 335 335 4 4 4 308
 308 362 362 362 362 362 15 393 393 393 393 393 224 224 224 224 224 224 297 297
 297 297 335 335 335 335 4 308 308 308 308 308 362 362 362 362 230 230 393 393
 322 322 224 224 224 224 224 224 297 297 297 297 335 335 335 335 308 308 308 308
 308 308 362 362 362 230 230 230 230 322 322 322 322 224 224 224 224 297 297 297
 297 297 63 335 377 377 308 308 308 308 308 308 308 362 362 230 230 230 322 322
 322 322 322 265 224 224 319 319 297 297 297 63 63 63 377 377 377 308 308 308
 308 308 308 298 298 230 230 230 322 322 252 252 265 171 265 319 319 319 319 297
 63 63 63 63 377 377 377 308 308 308 308 308 298 298 298 230 230 230 322 252
 252 252 171 171 171 171 319 319 319 63 63 63 63 63 377 377 377 308 308 308
 308 308 367 367 367 367 376 376 252 252 252 252 171 171 171 171 187 187 187 63
 63 63 63 136 377 377 377 199 308 308 308 367 367 367 367 367 376 376 252 252
 252 252 171 171 171 187 187 187 187 187 63 63 136 136 136 199 199 199 199 199
 199 367 367 367 367 367 376 376 252 252 252 252 228 228 228 228 187 187 187 187
 187 136 136 136 136 199 199 199 199 199 199 214 264 264 264 264 376 55 55 55
 55 55 228 228 228 228 187 187 187 187 187 136 136 136 136 199 199 199 199 199
 199 214 264 264 264 264 55 55 55 55 55 55 353 228 228 228 187 187 187 46
 46 246 136 136 199 199 199 199 199 199 214 214 214 264 264 264 45 55 55 55
 55 353 353 353 353 353 36 36 46 46 46 46 246 199 199 199 199 199 199 199
 389 389 389 264 264 264 169 169 55 55 55 353 353 353 353 353 36 13 46 46
 46 46 46 38 199 199 199 199 199 389 389 389 389 389 60 60 169 169 169 55
 353 353 353 353 353 36 13 13 13 46 46 46 38 38 38 38 38 199 199 389
 389 389 389 389 60 60 60 169 169 55 111 111 353 353 353 13 13 13 13 211
 211 211 38 38 38 38 38 26 26 26 26 389 389 60 60 60 60 60 116 111
 111 111 111 111 353 13 13 13 211 211 211 211 38 38 38 38 38 26 26 26
 26 26 389 60 60 60 60 60 116 111 111 111 111 111 111 13 13 211 211 211
 211 211 38 38 38 38 38 26 26 26 26 26 26 121 121 121 121 88 88 111
 111 111 111 111 111 58 13 211 211 211 211 211 211 38 366 366 366 26 26 26
 26 26 121 121 121 121 121 88 88 88 111 111 111 111 266 266 166 166 166 211
 211 211 156 366 366 366 366 26 26 368 368 368 121 121 121 121 121 88 88 88
 111 111 266 266 266 266 166 166 166 166 156 156 156 156 366 366 366 368 368 368
 368 368 121 121 121 121 121 88 88 88 253 266 266 266 266 266 2 166 166 166
 156 156 156 156 344 366 366 368 368 368 368 368 390 121 121 121 121 88 101 101
 66 66 66 266 266 93 93 93 166 156 156 156 156 156 184 184 184 184 368 368
 368 390 390 390 103 103 101 101 101 101 66 66 66 66 66 93 93 93 93 156
 156 156 156 352 352 352 352 352 368 368 390 390 390 390 103 103 101 101 101 101
 66 66 66 66 66 288 93 93 156 156 156 156 156 352 352 352 352 352 352 352
 390 390 390 384 384 103 101 101 101 66 66 66 66 66 288 288 288 288 156 156
 156 19 19 352 352 352 352 352 352 352 180 384 384 384 384 384 324 101 101 66
 66 66 66 66 288 288 288 288 288 233 19 19 19 352 352 352 352 352 352 352
 384 384 384 384 384 384 324 324 324 66 66 66 66 288 288 288 288 288 288 233
 113 19 352 352 352 352 352 352 352 352 384 384 384 384 384 384 334 393 393 393
 393 393 355 288 288 288 288 288 288 113 113 113 113 352 352 352 352 352 4 4
 384 384 384 384 384 384 334 393 393 393 393 393 224 224 224 224 224 224 224 113
 113 113 113 386 386 386 4 4 4 4 4 362 362 362 384 384 334 393 393 393
 393 393 224 224 224 224 224 224 224 297 113 113 113 386 386 386 4 4 4 4
 4 362 362 362 362 362 170 393 393 393 393 393 224 224 224 224 224 224 297 297
 297 297 335 386 386 386 4 4 4 4 308 362 362 362 362 362 170 170 393 393
 322 322 224 224 224 224 224 224 297 297 297 297 297 386 386 386 4 4 4 308
 308 308 362 362 362 230 230 230 230 230 322 181 181 224 224 224 224 297 297 297
 297 297 63 377 377 377 377 308 308 308 308 308 362 362 362 230 230 230 230 230
 181 181 181 224 224 224 224 297 297 297 297 297 63 377 377 377 377 308 308 308
 308 308 145 145 145 230 230 230 230 230 181 181 181 171 171 347 347 297 297 297
 297 63 63 377 377 377 377 377 308 308 308 308 145 145 145 230 230 230 230 181
 252 252 171 171 171 171 347 297 297 297 365 365 365 377 377 377 377 377 308 308
 308 367 367 367 367 367 376 376 376 252 252 171 171 171 171 171 171 134 297 365
 365 365 365 136 377 377 377 377 199 308 367 367 367 367 367 367 376 376 376 252
 252 252 171 171 171 171 187 134 187 365 365 365 136 136 136 199 199 199 199 199
 367 367 367 367 367 367 376 376 376 252 55 55 228 228 228 228 187 134 187 187
 365 136 136 136 136 199 199 199 199 199 199 264 264 264 264 264 376 376 55 55
 55 55 228 228 228 228 187 187 187 187 246 136 136 136 136 199 199 199 199 199
 199 264 264 264 264 264 264 55 55 55 55 55 353 228 228 353 353 187 187 46
 246 246 246 136 199 199 199 199 199 199 199 264 264 264 264 264 264 55 55 55
 55 353 353 353 353 353 353 353 46 46 46 246 246 246 199 199 199 199 199 199
 199 264 264 264 264 264 169 169 55 55 55 353 353 353 353 353 13 13 13 46
 46 246 246 38 199 199 199 199 199 199 389 389 389 264 264 264 169 169 169 55
 353 353 353 353 353 353 13 13 13 13 46 9 38 38 38 38 199 199 199 199
 389 389 389 389 60 60 169 169 169 55 353 353 353 353 353 13 13 13 13 13
 211 211 38 38 38 38 38 26 26 186 186 389 389 60 60 60 60 60 169 111
 111 111 111 353 58 58 13 13 13 211 211 211 38 38 38 38 38 26 26 186
 186 186 186 60 60 60 60 60 88 111 111 111 111 111 58 58 58 13 211 211
 211 211 38 38 38 38 38 26 26 186 186 186 186 121 121 121 88 88 88 88
 111 111 111 111 58 58 58 166 166 211 211 211 211 38 366 366 366 26 26 186
 186 186 282 121 121 121 88 88 88 88 111 111 111 111 58 58 166 166 166 166
 166 166 156 366 366 366 366 26 26 368 186 282 282 121 121 121 88 88 88 88
 168 168 266 266 266 166 166 166 166 166 166 156 156 366 366 366 366 366 368 368
 368 282 282 121 121 121 121 88 88 88 168 168 266 266 266 93 166 166 166 166
 156 156 156 156 184 184 184 368 368 368 368 368 282 121 121 121 121 88 88 88
 168 168 168 93 93 93 93 93 166 166 156 156 156 156 184 184 184 242 242 242
 242 242 242 103 103 103 103 101 197 197 197 66 66 66 93 93 93 93 93 156
 19 19 19 352 352 184 352 352 242 242 242 242 180 103 103 103 103 103 197 197
 66 66 66 66 93 93 93 93 93 19 19 19 19 352 352 352 352 352 242 242
 180 180 180 180 103 103 103 101 197 197 66 66 66 66 288 288 288 288 93 19
 19 19 19 352 352 352 352 352 352 180 180 180 180 180 180 324 324 324 197 66
 66 66 66 66 288 288 288 288 233 233 19 19 19 352 352 352 352 352 352 180
 180 180 180 384 384 324 324 324 324 66 66 66 66 288 288 288 288 288 233 233
 233 19 19 352 352 352 352 352 352 180 180 180 384 384 384 384 324 324 393 393
 393 393 66 288 288 288 288 288 233 233 113 113 113 113 352 352 352 4 4 4
 180 180 384 384 384 384 324 393 393 393 393 393 393 224 224 224 224 224 233 233
 113 113 113 386 386 386 386 4 4 4 4 362 362 362 384 384 170 393 393 393
 393 393 224 224 224 224 224 224 224 297 113 113 113 386 386 386 386 4 4 4
 4 362 362 362 362 170 170 170 170 393 393 393 224 224 224 224 224 224 297 297
 297 297 113 386 386 386 386 4 4 4 4 362 362 362 362 170 170 170 170 393
 181 181 224 224 224 224 224 224 297 297 297 297 297 386 386 386 386 4 4 4
 308 308 362 362 362 170 170 170 170 230 181 181 181 224 224 224 224 297 297 297
 297 297 297 386 386 386 386 4 4 308 308 308 145 145 145 230 230 230 230 181
 181 181 181 224 347 347 347 297 297 297 297 297 5 5 377 377 377 308 308 308
 308 145 145 145 145 230 230 230 230 181 181 181 181 171 347 347 347 297 297 297
 365 365 5 5 377 377 377 377 308 308 308 145 145 145 145 145 230 230 230 181
 181 181 171 171 171 347 347 297 297 365 365 365 365 5 377 377 377 377 308 308
 145 145 145 145 145 145 376 376 376 181 252 171 171 171 171 347 134 134 134 365
 365 365 365 365 377 377 377 377 199 308 367 367 367 367 367 367 376 376 376 252
 252 171 171 171 171 7 134 134 134 365 365 365 365 136 136 199 199 199 199 199
 367 367 367 367 367 367 376 376 376 252 55 55 171 228 228 7 134 134 134 134
 365 365 136 136 136 199 199 199 199 199 199 264 264 264 264 264 264 376 55 55
 55 55 228 228 228 7 134 134 134 134 246 246 246 136 136 199 199 199 199 199
 199 264 264 264 264 264 264 55 55 55 55 55 353 353 353 353 353 134 134 246
 246 246 246 246 199 199 199 199 199 199 199 264 264 264 264 264 264 55 55 55
 55 353 353 353 353 353 353 134 13 46 246 246 246 246 199 199 199 199 199 199
 199 264 264 264 264 264 264 169 55 55 55 353 353 353 353 353 353 13 13 13
 246 246 246 246 199 199 199 199 199 199 199 264 264 264 264 264 169 169 169 55
 353 353 353 353 353 353 13 13 13 13 9 9 9 38 38 38 199 199 199 199
 389 264 264 264 264 264 169 169 169 55 353 353 353 353 353 13 13 13 13 13
 9 9 9 38 38 38 364 364 186 186 186 186 186 264 60 60 60 169 169 55
 111 353 353 58 58 58 58 13 13 13 9 9 9 9 38 38 364 364 186 186
 186 186 186 186 60 60 268 268 268 268 111 111 111 58 58 58 58 58 13 211
 211 9 9 9 38 38 364 364 186 186 186 186 186 282 282 121 268 268 268 268
 111 111 111 58 58 58 58 166 166 166 166 166 269 366 366 366 366 366 186 186
 186 186 282 282 121 121 88 88 88 88 168 168 168 58 58 58 166 166 166 166
 166 166 269 366 366 366 366 366 186 186 186 282 282 282 121 121 88 88 88 88
 168 168 168 168 93 93 166 166 166 166 166 166 269 366 366 366 366 242 242 242
 242 282 282 282 121 121 88 88 88 88 168 168 168 168 93 93 93 166 166 166
 166 156 156 184 184 184 184 242 242 242 242 282 282 282 121 121 121 88 88 88
 168 168 168 93 93 93 93 93 93 166 19 100 100 100 100 184 242 242 242 242
 242 242 242 103 103 103 103 103 197 197 197 168 115 115 93 93 93 93 93 19
 19 19 100 100 100 352 352 242 242 242 242 242 242 103 103 103 103 103 197 197
 197 66 115 115 115 93 93 93 93 19 19 19 19 100 352 352 352 352 242 242
 242 180 180 180 103 103 103 103 197 197 66 66 115 115 115 93 93 93 93 19
 19 19 19 19 352 352 352 352 242 242 180 180 180 180 180 180 324 324 324 66
 66 66 115 115 115 288 288 288 233 233 19 19 19 19 352 352 352 352 352 180
 180 180 180 180 180 180 324 324 324 66 66 66 115 115 288 288 288 288 233 233
 233 19 19 19 320 320 320 352 4 180 180 180 180 180 180 324 324 324 324 393
 393 393 115 288 288 288 288 288 233 233 233 113 113 386 320 320 320 4 4 4
 180 180 180 180 180 281 324 324 393 393 393 393 393 224 224 224 224 224 233 233
 313 313 313 386 386 386 386 4 4 4 180 180 180 180 281 281 170 170 170 393
 393 393 224 224 224 224 224 224 224 313 313 313 313 386 386 386 386 4 4 4
 4 362 362 362 362 170 170 170 170 170 393 393 224 224 224 224 224 224 297 297
 313 313 313 386 386 386 386 4 4 4 4 362 362 362 362 170 170 170 170 170
 181 181 181 224 224 224 224 224 297 297 313 313 313 386 386 386 386 4 4 4
 4 308 362 362 362 170 170 170 170 170 181 181 181 224 224 224 224 224 297 297
 297 297 313 386 386 386 386 4 4 4 4 145 145 145 145 170 170 170 170 181
 181 181 181 347 347 347 347 347 297 297 297 297 5 5 5 377 377 308 308 308
 257 145 145 145 145 145 230 230 181 181 181 181 181 347 347 347 347 347 297 297
 365 365 5 5 5 377 377 377 308 257 257 145 145 145 145 145 230 230 181 181
 181 181 181 347 347 347 347 347 297 365 365 365 365 5 5 377 377 377 308 257
 257 145 145 145 145 145 376 376 181 181 181 181 171 171 347 347 134 134 134 365
 365 365 365 365 377 377 377 377 199 145 145 145 145 145 145 145 376 376 376 181
 67 171 171 7 7 7 134 134 134 365 365 365 365 365 136 199 199 199 199 199
 264 264 264 264 264 264 376 376 376 67 79 79 79 7 7 7 134 134 134 134
 365 365 365 136 136 199 199 199 199 199 264 264 264 264 264 264 264 376 55 55
 79 79 79 7 7 7 134 134 134 134 246 246 246 246 246 199 199 199 199 199
 264 264 264 264 264 264 264 55 55 55 55 79 353 353 353 7 7 134 134 134
 246 246 246 246 246 199 199 199 199 199 264 264 264 264 264 264 264 55 55 55
 55 353 353 353 353 353 353 134 134 246 246 246 246 246 246 199 199 199 199 199
 264 264 264 264 264 264 264 169 55 55 231 353 353 353 353 353 353 13 13 246
 246 246 246 246 246 199 199 199 199 199 264 264 264 264 264 264 264 231 231 231
 231 353 353 353 353 353 13 13 13 13 9 9 9 9 38 364 364 364 199 176
 176 176 176 264 264 264 133 169 231 231 231 353 353 353 58 58 13 13 13 13
 9 9 9 9 38 364 364 364 364 176 176 176 176 176 264 264 268 268 268 231
 385 385 385 58 58 58 58 13 13 13 9 9 9 9 38 364 364 364 364 186
 186 186 186 186 282 268 268 268 268 268 385 385 385 58 58 58 58 58 13 211
 9 9 9 9 9 364 364 364 186 186 186 186 186 282 282 282 268 268 268 268
 385 385 385 58 58 58 58 166 166 166 269 269 269 269 366 366 366 364 186 186
 186 186 282 282 282 282 268 268 268 88 168 168 168 58 58 58 58 166 166 166
 269 269 269 269 366 366 366 242 242 186 186 282 282 282 282 282 88 88 88 88
 168 168 168 168 93 93 166 166 166 166 166 269 269 269 366 366 242 242 242 242
 242 282 282 282 282 282 88 88 88 88 168 168 168 168 93 93 93 166 166 166
 166 269 100 100 100 184 242 242 242 242 242 242 282 282 56 56 56 88 88 168
 168 168 168 93 93 93 93 93 93 131 131 100 100 100 100 100 242 242 242 242
 242 242 242 56 56 56 56 56 197 197 197 168 115 115 93 93 93 93 93 131
 19 100 100 100 100 100 242 242 242 242 242 242 242 103 103 103 103 103 197 197
 197 115 115 115 115 93 93 93 93 19 19 19 100 100 100 352 352 242 242 242
 242 180 180 180 180 103 103 103 197 197 66 115 115 115 115 93 93 93 93 19
 19 19 19 100 100 320 320 352 242 180 180 180 180 180 180 180 324 324 197 66
 328 115 115 115 115 115 93 93 233 233 19 19 19 320 320 320 320 320 180 180
 180 180 180 180 180 180 324 324 328 328 328 115 115 115 115 115 288 233 233 233
 233 19 19 320 320 320 320 320 320 180 180 180 180 180 180 180 324 324 328 328
 328 328 115 115 288 288 17 17 233 233 233 19 313 320 320 320 320 320 4 180
 180 180 180 180 180 281 281 324 328 328 393 393 160 160 224 224 17 17 17 313
 313 313 313 313 386 386 386 4 4 4 180 180 180 180 281 281 281 170 170 170
 393 16 160 160 224 224 224 17 17 313 313 313 313 313 386 386 386 4 4 4
 4 180 336 336 281 281 170 170 170 170 16 16 160 160 224 224 224 224 17 313
 313 313 313 313 386 386 386 4 4 4 4 336 336 336 336 170 170 170 170 170
 16 16 16 224 224 224 224 224 297 313 313 313 313 386 386 386 386 4 4 4
 284 284 336 336 336 170 170 170 170 170 181 181 181 181 224 347 224 224 297 313