# vtk DataFile Version 2.0
Data set from IO Version 6.4.197.9a0dee2
ASCII

DATASET RECTILINEAR_GRID
DIMENSIONS 31 31 31
X_COORDINATES 31 float
-4.416667 4.416667 13.250000 22.083334 30.916666 39.749996 48.583332 57.416664 66.250000 75.083336 83.916664 92.750000 101.583336 110.416664 119.250000 128.083328 136.916656 145.749985 154.583328 163.416656 172.249985 
181.083328 189.916656 198.749985 207.583328 216.416656 225.249985 234.083313 242.916656 251.749985 260.583344 
Y_COORDINATES 31 float
-4.416667 4.416667 13.250000 22.083334 30.916666 39.749996 48.583332 57.416664 66.250000 75.083336 83.916664 92.750000 101.583336 110.416664 119.250000 128.083328 136.916656 145.749985 154.583328 163.416656 172.249985 
181.083328 189.916656 198.749985 207.583328 216.416656 225.249985 234.083313 242.916656 251.749985 260.583344 
Z_COORDINATES 31 float
-4.416667 4.416667 13.250000 22.083334 30.916666 39.749996 48.583332 57.416664 66.250000 75.083336 83.916664 92.750000 101.583336 110.416664 119.250000 128.083328 136.916656 145.749985 154.583328 163.416656 172.249985 
181.083328 189.916656 198.749985 207.583328 216.416656 225.249985 234.083313 242.916656 251.749985 260.583344 
CELL_DATA 27000
SCALARS FeatureIds int 1
LOOKUP_TABLE default
 375 375 375 375 375 279 193 193 193 193 299 299 299 58 58 58 58 58 82 82
 82 232 232 232 232 327 327 327 327 327 196 196 375 375 375 279 193 347 347 347
 347 299 299 58 58 58 58 58 82 82 82 232 232 232 232 327 327 327 327 327
 250 250 250 375 375 279 347 347 347 347 347 219 219 219 58 58 58 82 82 82
 82 82 232 232 232 327 327 327 327 250 250 250 250 250 361 361 347 347 347 28
 28 219 219 219 219 145 145 145 82 82 82 170 232 232 232 327 327 327 327 250
 250 250 250 250 361 361 361 347 28 28 28 219 219 219 219 145 145 145 145 170
 170 170 170 170 152 152 152 327 194 194 194 250 250 361 361 361 361 361 28 28
 28 219 219 219 219 145 145 145 145 170 170 170 170 170 152 152 152 152 194 194
 194 33 33 361 361 361 361 361 28 28 28 28 219 219 219 145 145 145 85 85
 170 170 170 170 152 152 152 152 194 194 33 33 33 33 361 361 361 361 28 28
 28 28 171 171 171 145 145 85 85 85 85 85 170 137 137 137 137 40 40 40
 277 33 33 33 206 206 206 206 28 28 28 28 171 171 171 171 291 291 85 85
 85 85 170 137 137 137 137 277 277 277 277 33 33 33 206 206 206 206 206 57
 57 57 57 57 171 291 291 291 291 291 85 85 85 137 137 137 137 277 277 277
 277 33 33 33 206 206 206 206 206 57 57 57 57 57 57 291 291 291 291 291
 291 85 85 231 179 179 179 277 277 277 33 33 346 346 346 346 206 206 57 57
 57 57 57 57 166 166 291 291 291 291 318 318 231 231 179 179 179 179 277 277
 368 346 346 346 346 346 346 346 57 57 57 57 57 57 166 166 166 318 318 318
 318 318 231 231 231 179 179 302 368 368 368 346 346 346 346 346 346 346 201 57
 57 57 57 233 166 166 166 318 318 318 318 318 231 231 231 302 302 302 368 368
 368 368 346 346 346 346 346 346 201 201 57 233 233 233 233 166 166 318 318 318
 318 318 187 187 187 302 302 302 368 368 368 368 346 346 346 346 346 241 241 201
 233 233 233 233 233 233 55 55 318 318 318 318 187 187 187 302 302 302 302 368
 368 368 346 346 346 346 241 241 241 241 233 233 233 233 233 55 55 55 55 318
 318 187 187 187 187 302 302 302 302 302 364 364 364 364 338 241 241 241 241 241
 78 233 233 233 83 55 55 55 55 55 318 187 187 187 187 302 302 302 302 302
 364 364 364 364 338 338 241 241 241 78 78 78 78 83 83 83 83 55 55 55
 55 104 104 104 104 302 302 302 302 364 364 364 364 338 338 338 241 241 78 78
 78 78 78 78 83 83 83 83 268 268 268 268 104 104 104 104 373 302 302 364
 364 364 364 338 338 338 338 78 78 78 78 78 78 78 83 83 83 268 268 268
 268 268 104 104 104 395 395 162 162 162 162 364 364 338 338 338 324 324 78 78
 78 78 78 78 78 83 83 268 268 268 268 268 268 11 395 395 242 242 162 162
 162 364 364 353 353 324 324 324 324 78 78 78 78 78 78 83 268 268 268 268
 268 268 11 11 11 11 242 242 242 162 162 364 364 353 324 324 324 324 324 78
 78 78 78 78 78 128 268 268 268 268 268 268 11 11 11 11 242 242 242 242
 89 89 89 89 324 324 324 324 324 119 119 119 119 280 128 128 128 268 268 268
 268 268 11 11 11 11 382 242 242 242 89 89 89 89 324 324 324 324 324 119
 119 119 280 280 128 128 128 128 360 360 360 131 131 131 195 382 382 382 382 242
 89 89 89 89 89 380 380 380 380 119 119 119 280 280 280 128 128 360 360 360
 360 131 131 131 195 195 382 382 382 382 89 89 89 375 375 375 279 380 119 119
 119 119 280 280 280 280 58 360 360 360 360 195 195 195 195 195 382 382 382 382
 375 375 375 375 375 279 279 279 193 119 119 280 280 280 280 58 58 58 360 360
 360 195 195 195 195 195 327 327 327 327 375 375 375 375 375 279 279 193 193 193
 119 299 280 280 58 58 58 58 360 360 360 232 232 232 195 327 327 327 327 327
 196 375 375 375 375 375 193 193 193 335 335 335 186 186 186 58 58 58 82 82
 386 232 232 232 232 327 327 327 327 327 196 196 375 375 375 193 193 193 193 335
 335 335 186 186 186 186 58 58 82 82 82 232 232 232 232 327 327 327 327 327
 196 196 375 375 375 375 347 347 347 347 335 186 186 186 186 186 58 82 82 82
 82 82 232 232 232 327 327 327 327 327 250 250 250 250 361 361 347 347 347 28
 28 219 219 186 186 59 145 145 82 38 38 38 232 232 232 327 327 327 327 327
 250 250 250 250 361 361 361 347 28 28 28 219 219 219 59 59 145 145 145 38
 38 38 170 170 137 137 327 327 194 194 194 250 250 361 361 361 361 361 28 28
 28 219 219 219 59 59 145 145 85 38 38 38 170 137 137 137 137 40 194 194
 33 33 33 33 361 361 361 217 28 28 28 28 171 171 171 59 145 85 85 85
 38 38 170 137 137 137 137 40 40 40 33 33 33 33 33 217 217 217 217 28
 21 21 171 171 171 59 145 85 85 85 85 85 170 137 137 137 137 40 40 40
 33 33 33 33 33 206 217 217 217 217 21 21 171 171 171 171 291 291 85 85
 85 85 137 137 137 137 137 40 40 33 33 33 33 33 33 206 206 217 217 57
 57 57 57 57 171 291 291 291 291 291 85 85 137 137 137 137 137 358 33 33
 33 33 33 33 33 206 206 206 217 57 57 57 57 57 57 291 291 291 291 291
 291 85 137 137 137 137 137 358 33 33 33 33 33 33 346 346 206 206 201 57
 57 57 57 57 166 166 291 291 291 291 318 318 231 231 231 179 179 179 33 33
 368 33 346 346 346 346 346 201 201 57 57 57 57 57 166 166 166 318 318 318
 318 318 231 231 231 231 231 368 368 368 368 346 346 346 346 346 346 201 201 201
 57 57 57 233 233 166 166 318 318 318 318 318 231 231 231 231 302 368 368 368
 368 368 346 346 346 346 346 201 201 201 201 233 233 233 233 233 166 318 318 318
 318 318 231 231 231 231 302 302 368 368 368 368 346 346 346 346 241 241 201 201
 201 233 233 233 233 233 55 318 318 318 318 318 187 187 187 302 302 302 368 368
 255 255 255 255 346 241 241 241 241 241 201 233 233 233 233 233 55 55 55 318
 318 318 187 187 187 373 373 373 302 368 255 255 255 255 241 241 241 241 241 241
 241 233 233 233 83 83 55 55 55 55 318 318 187 187 187 373 373 373 373 373
 364 364 364 364 338 338 241 241 241 78 78 78 78 83 83 83 83 55 55 55
 55 104 104 104 104 373 373 373 373 373 364 364 364 338 338 338 241 241 78 78
 78 78 78 83 83 83 83 83 268 268 268 268 104 104 104 373 373 373 373 364
 364 364 364 353 353 353 353 353 78 78 78 78 78 78 83 83 83 83 268 268
 268 268 104 104 104 395 373 373 162 162 364 364 364 353 353 353 353 324 78 78
 78 78 78 78 78 83 83 268 268 268 268 268 146 146 395 242 242 242 242 242
 162 364 353 353 353 353 324 324 324 78 78 78 78 78 78 83 268 268 268 268
 268 146 146 146 11 242 242 242 242 242 162 126 353 353 353 324 324 324 324 78
 78 78 78 78 78 78 128 268 268 268 146 146 146 146 11 242 242 242 242 242
 126 126 126 353 353 324 324 324 324 324 78 78 78 78 128 128 128 128 268 268
 146 146 146 146 11 242 242 242 242 242 89 89 89 89 380 380 380 380 380 119
 119 280 280 280 128 128 128 360 360 360 360 146 131 131 195 195 242 242 242 242
 89 89 89 89 375 380 380 380 380 119 119 280 280 280 280 128 128 360 360 360
 360 360 131 195 195 195 125 125 125 125 89 375 375 375 375 375 380 380 380 119
 119 280 280 280 280 280 58 360 360 360 360 195 195 195 195 195 125 125 125 125
 375 375 375 375 375 375 279 380 193 335 335 280 280 280 280 280 58 360 360 360
 360 195 195 195 195 195 125 125 125 125 375 375 375 375 375 247 193 193 193 335
 335 335 280 280 280 58 58 58 360 360 360 195 195 195 195 327 327 327 327 327
 375 375 375 375 375 375 193 193 193 335 335 335 186 186 186 186 58 9 9 386
 386 386 386 386 386 327 327 327 327 327 196 196 375 375 375 375 193 193 193 335
 335 335 186 186 186 186 186 9 9 386 386 386 386 386 232 327 327 327 327 327
 196 196 375 375 375 375 193 193 84 84 84 186 186 186 186 186 186 264 264 386
 386 386 386 386 386 327 327 327 327 327 250 250 250 375 375 185 347 84 84 84
 84 186 186 186 186 59 59 59 38 38 38 38 386 386 137 327 327 327 327 327
 250 250 250 185 361 361 361 84 84 84 84 186 186 59 59 59 59 59 59 38
 38 38 38 137 137 137 137 327 327 327 33 33 33 33 361 217 217 217 217 28
 28 21 219 59 59 59 59 59 85 38 38 38 38 137 137 137 137 137 40 40
 33 33 33 33 33 217 217 217 217 217 21 21 21 171 59 59 59 85 85 85
 38 38 38 137 137 137 137 40 40 40 33 33 33 33 33 217 217 217 217 217
 21 21 21 171 171 59 59 85 85 85 85 85 137 137 137 137 137 40 40 40
 33 33 33 33 33 217 217 217 217 217 21 21 21 171 171 67 67 67 85 85
 85 85 137 137 137 137 137 358 40 33 33 33 33 33 33 33 217 217 217 57
 57 57 57 57 171 67 67 67 67 85 85 85 137 137 137 137 358 358 358 33
 33 33 33 33 33 33 206 217 217 57 57 57 57 57 198 198 67 67 291 291
 291 85 137 137 137 137 358 358 358 33 33 33 33 33 33 33 201 201 201 57
 57 57 57 57 198 198 198 291 291 318 276 276 276 231 137 137 243 243 33 33
 33 33 33 330 330 346 201 201 201 201 57 57 57 57 198 198 321 321 321 318
 276 276 276 231 231 231 243 243 243 243 368 346 330 330 330 330 201 201 201 201
 201 57 57 233 233 321 321 321 321 318 276 276 276 231 231 231 243 243 243 243
 368 368 330 330 330 346 201 201 201 201 201 201 233 233 233 233 321 321 321 318
 318 276 276 231 231 231 243 243 243 368 255 255 255 255 346 346 201 201 201 201
 201 233 233 233 233 233 321 321 318 318 318 276 276 231 231 373 373 373 373 368
 255 255 255 255 255 241 241 241 241 201 201 233 233 233 233 233 55 55 55 318
 318 276 187 187 261 261 373 373 373 373 255 255 255 255 255 241 241 241 241 241
 201 233 233 233 233 83 83 55 55 55 305 305 104 261 261 261 373 373 373 373
 255 255 255 255 338 338 241 241 241 78 78 78 78 83 83 83 83 83 55 55
 305 104 104 104 104 261 373 373 373 373 255 255 255 353 353 353 353 353 78 78
 78 78 78 83 83 83 83 83 268 268 268 104 104 104 104 373 373 373 373 373
 364 364 353 353 353 353 353 353 78 78 78 78 78 78 83 83 83 83 268 268
 268 268 104 104 104 221 221 373 373 373 364 364 353 353 353 353 353 353 78 78
 78 78 78 78 78 83 83 83 268 146 146 146 146 146 221 221 242 242 242 242
 162 353 353 353 353 353 353 324 324 78 78 78 78 78 78 83 83 268 268 146
 146 146 146 146 221 242 242 242 242 242 126 126 353 353 353 353 324 324 324 78
 78 78 78 78 78 78 128 268 268 146 146 146 146 146 146 242 242 242 242 242
 126 126 126 353 353 324 324 324 324 78 78 78 78 78 128 128 128 128 146 146
 146 146 146 146 146 242 242 242 242 242 151 126 151 151 380 380 380 380 380 78
 78 280 280 280 128 128 128 128 360 360 146 146 146 146 195 125 125 242 242 242
 151 126 151 151 380 380 380 380 380 380 280 280 280 280 280 128 128 360 360 360
 360 360 195 195 195 125 125 125 125 125 151 375 375 375 375 375 380 380 380 335
 280 280 280 280 280 280 128 360 360 360 360 195 195 195 195 125 125 125 125 125
 375 375 375 375 375 247 380 380 335 335 335 280 280 280 280 280 58 360 360 360
 360 195 195 195 195 125 125 125 125 125 375 375 375 375 247 247 193 193 193 335
 335 335 280 280 280 280 58 9 360 360 360 386 195 195 195 125 125 327 327 125
 375 375 375 375 375 375 193 193 335 335 335 335 186 186 186 186 186 9 9 9
 386 386 386 386 286 286 327 327 327 327 196 375 375 375 375 49 49 193 335 335
 335 186 186 186 186 186 186 9 9 264 386 386 386 386 286 286 327 327 327 327
 196 185 185 185 185 49 49 84 84 84 84 186 186 186 186 186 186 264 264 264
 386 386 386 386 286 286 327 327 327 327 185 185 185 185 185 185 185 84 84 84
 84 186 186 186 186 59 59 59 264 264 264 386 386 386 286 286 327 327 327 327
 331 185 185 185 185 185 217 84 84 84 84 189 189 189 59 59 59 59 264 264
 38 38 38 137 137 137 137 327 331 331 33 33 185 185 185 217 217 217 217 84
 84 21 189 189 59 59 59 59 85 38 38 38 38 137 137 137 137 137 331 331
 33 33 33 33 33 217 217 217 217 217 21 21 21 189 59 59 59 59 85 85
 38 38 137 137 137 137 137 40 40 40 33 33 33 33 33 217 217 217 217 217
 21 21 21 21 59 59 59 67 85 85 85 38 137 137 137 137 137 40 40 40
 33 33 33 33 33 217 217 217 217 217 21 21 21 21 171 67 67 67 67 85
 85 85 137 137 137 137 137 358 358 33 33 33 33 33 33 33 217 217 217 217
 21 21 21 21 67 67 67 67 67 67 85 85 137 137 137 137 358 358 358 33
 33 33 33 33 33 33 217 217 217 57 57 57 57 57 198 198 67 67 67 67
 276 276 137 137 137 137 358 358 358 33 33 33 33 33 33 33 201 201 201 201
 57 57 57 57 198 198 198 321 321 276 276 276 276 137 137 137 243 243 243 33
 243 33 330 330 330 330 201 201 201 201 201 57 57 57 198 198 321 321 321 276
 276 276 276 276 231 243 243 243 243 243 243 243 330 330 330 330 201 201 201 201
 201 201 57 233 233 321 321 321 321 276 276 276 276 276 231 243 243 243 243 243
 243 243 330 330 330 330 201 201 201 201 201 201 233 233 233 321 321 321 321 321
 276 276 276 276 231 243 243 243 243 243 255 255 255 330 330 330 201 201 201 201
 201 201 233 233 233 233 321 321 321 321 276 276 276 276 261 373 373 373 243 243
 255 255 255 255 255 241 241 201 201 201 201 201 233 233 233 233 321 321 321 305
 305 305 305 305 261 261 373 373 373 373 255 255 255 255 255 241 241 241 201 201
 62 62 62 62 233 83 83 55 55 305 305 305 305 305 261 261 373 373 373 373
 255 255 255 255 255 353 241 241 241 62 62 62 62 62 83 83 83 83 273 305
 305 305 305 305 261 261 373 373 373 373 255 255 255 353 353 353 353 353 353 78
 78 78 78 83 83 83 51 51 51 273 305 305 305 221 221 221 373 373 373 373
 255 255 353 353 353 353 353 353 353 78 78 78 78 78 51 51 51 51 51 273
 146 146 221 221 221 221 221 221 373 373 255 353 353 353 353 353 353 353 353 78
 78 78 78 78 51 51 51 51 51 146 146 146 146 221 221 221 221 221 242 242
 353 353 353 353 353 353 353 353 78 78 78 78 78 78 147 147 147 147 146 146
 146 146 146 146 221 221 242 242 242 242 126 353 353 353 353 353 353 324 324 78
 78 78 78 78 147 147 147 147 146 146 146 146 146 146 221 221 242 242 242 242
 126 126 126 353 353 353 324 324 324 100 78 78 78 78 147 147 147 147 146 146
 146 146 146 146 352 352 352 352 242 352 151 126 151 151 151 380 380 380 100 100
 100 280 280 280 280 147 147 147 146 146 146 146 146 146 352 352 352 352 352 352
 126 126 126 151 151 380 380 380 100 100 100 280 280 280 280 280 128 360 360 360
 360 146 195 195 195 125 125 125 125 125 126 126 375 375 375 380 380 380 380 100
 280 280 280 280 280 280 280 360 360 360 9 195 195 195 195 125 125 125 125 125
 238 375 375 375 375 375 380 380 335 335 335 335 280 280 280 280 280 9 9 9
 9 9 195 195 195 125 125 125 125 125 238 375 375 375 375 375 193 193 193 335
 335 335 186 186 186 186 186 9 9 9 9 386 386 386 386 125 125 125 125 125
 238 238 238 375 49 49 49 49 90 90 335 335 186 186 186 186 70 9 9 9
 386 386 386 386 286 286 286 161 161 161 238 185 185 185 49 49 49 49 90 90
 335 186 186 186 186 186 70 70 9 264 386 386 386 386 286 286 286 286 161 161
 185 185 185 185 185 49 49 49 84 84 84 186 186 186 186 186 70 264 264 264
 264 386 386 386 286 286 286 286 327 327 185 185 185 185 185 185 49 84 84 84
 84 189 189 189 189 59 59 264 264 264 264 386 386 386 286 286 286 286 331 331
 331 185 185 185 185 185 185 84 84 84 84 189 189 189 189 59 59 59 264 264
 264 38 38 137 137 137 137 331 331 331 331 185 185 185 185 217 217 217 217 84
 189 189 189 189 189 59 59 59 264 264 38 38 38 137 137 137 137 137 331 331
 331 33 33 33 33 217 217 217 217 217 21 21 189 189 189 59 59 59 156 156
 38 38 137 137 137 137 137 137 331 331 33 33 33 33 33 217 217 217 217 217
 21 21 21 189 189 59 59 59 156 156 156 38 137 137 137 137 137 137 40 33
 33 33 33 33 33 217 217 217 217 217 21 21 21 21 189 59 67 67 67 156
 156 85 137 137 137 137 137 358 358 33 33 33 33 33 33 33 217 217 217 217
 21 21 21 21 67 67 67 67 67 67 156 137 137 137 137 137 358 358 358 33
 33 33 33 33 33 33 319 319 217 240 240 240 240 240 198 198 67 67 67 67
 276 276 137 137 137 137 358 358 358 33 33 33 33 33 33 33 374 374 201 201
 240 240 240 240 198 198 198 321 321 276 276 276 276 137 137 243 243 243 243 243
 243 33 330 330 330 330 201 201 201 201 201 240 240 240 198 198 321 321 321 276
 276 276 276 276 243 243 243 243 243 243 243 243 330 330 330 330 201 201 201 201
 201 201 201 72 72 321 321 321 321 276 276 276 276 276 276 243 243 243 243 243
 243 243 330 330 330 330 201 201 201 201 201 201 201 72 72 72 321 321 321 321
 276 276 276 276 276 243 243 243 243 243 243 255 255 330 330 201 201 201 201 201
 201 201 62 62 72 72 72 321 321 305 276 276 276 276 261 243 373 243 243 243
 255 255 255 255 255 201 201 201 201 201 201 62 62 62 72 72 72 72 305 305
 305 305 305 305 261 261 373 373 373 373 255 255 255 255 255 127 201 201 201 201
 62 62 62 62 62 72 72 51 305 305 305 305 305 305 261 261 373 373 373 373
 255 255 255 255 255 353 353 353 201 62 62 62 62 62 51 51 51 51 273 273
 305 305 305 305 261 373 373 373 373 373 255 213 213 353 353 353 353 353 353 62
 62 62 62 62 51 51 51 51 273 273 305 305 305 221 221 221 221 373 373 373
 255 213 353 353 353 353 353 353 353 78 78 78 62 51 51 51 51 51 51 273
 273 305 305 221 221 221 221 221 221 221 255 213 353 353 353 353 353 353 353 78
 78 78 78 51 51 51 51 51 51 315 146 146 146 221 221 221 221 221 221 221
 353 353 353 353 353 353 353 353 353 78 78 78 78 147 147 147 147 147 315 315
 146 146 146 221 221 221 221 221 221 352 151 126 353 353 353 353 353 353 100 100
 78 78 78 147 147 147 147 147 315 315 146 146 146 146 221 221 352 352 352 352
 151 126 151 353 353 353 353 100 100 100 100 100 78 147 147 147 147 147 315 315
 146 146 146 146 352 352 352 352 352 352 151 126 151 151 293 293 293 100 100 100
 100 100 280 173 147 147 147 147 315 146 146 146 146 146 352 352 352 352 352 352
 126 126 126 126 293 293 293 293 100 100 100 100 280 173 173 147 147 147 9 360
 146 359 359 195 352 352 352 352 352 352 126 238 126 375 293 293 293 293 100 100
 100 280 280 173 173 280 280 9 9 9 9 359 359 359 195 125 125 125 125 125
 238 238 238 375 293 293 293 293 100 335 335 335 280 280 186 186 70 9 9 9
 9 9 359 359 359 125 125 125 125 125 238 238 238 375 375 49 293 388 335 335
 335 335 186 186 186 186 70 9 9 9 9 386 386 386 286 286 125 125 125 238
 238 238 238 49 49 49 49 388 388 90 90 388 186 186 186 70 70 70 9 9
 9 386 386 258 286 286 286 161 161 161 238 238 185 185 49 49 49 49 90 90
 90 388 186 186 186 70 70 70 9 264 386 386 386 258 286 286 286 286 161 161
 185 185 185 185 185 49 49 49 90 90 90 186 186 378 378 70 70 70 264 264
 264 386 258 258 286 286 286 286 161 331 185 185 185 185 185 185 49 49 90 90
 90 189 189 189 189 189 59 264 264 264 264 264 258 258 286 286 286 286 331 331
 331 185 185 185 185 185 369 369 369 84 189 189 189 189 189 189 59 264 264 264
 264 264 258 258 137 137 286 331 331 331 331 331 185 185 185 185 369 369 369 369
 189 189 189 189 189 189 59 59 264 264 264 264 137 137 137 137 137 331 331 331
 331 33 33 33 33 217 217 369 369 217 21 189 189 189 189 189 59 59 156 156
 156 38 137 137 137 137 137 354 331 331 33 33 33 33 33 217 217 217 217 217
 21 21 189 189 189 189 59 156 156 156 156 156 137 137 137 137 137 354 354 331
 33 33 33 33 33 217 217 217 217 217 21 21 292 189 189 189 67 67 156 156
 156 156 137 137 137 137 137 354 354 33 33 33 33 33 33 33 217 217 217 217
 240 240 240 189 189 67 67 67 67 67 87 87 137 137 137 137 137 358 358 33
 33 33 33 33 33 33 319 374 374 374 240 240 240 240 198 198 67 67 67 87
 87 87 87 137 137 357 357 358 358 33 33 33 33 33 33 374 374 319 374 201
 240 240 240 240 198 198 198 321 321 87 87 87 87 357 357 357 243 243 243 243
 243 33 330 330 330 330 374 374 201 201 240 240 240 240 72 72 72 321 321 87
 87 87 87 87 357 357 243 243 243 243 243 243 330 330 330 330 201 201 201 201
 201 201 240 72 72 72 72 321 321 276 276 276 276 276 243 243 243 243 243 243
 243 243 330 330 330 330 201 201 201 201 201 201 62 72 72 72 72 72 321 276
 276 276 276 276 276 243 243 243 243 243 243 243 330 330 330 201 201 201 201 201
 201 62 62 62 72 72 72 72 72 305 305 305 305 305 266 266 266 243 243 243
 255 255 255 255 127 127 201 201 201 201 62 62 62 62 72 72 72 72 72 305
 305 305 305 305 266 266 373 373 373 243 255 255 255 255 127 127 127 201 201 62
 62 62 62 62 62 72 72 72 72 305 305 305 305 305 261 373 373 373 373 373
 255 213 213 255 353 127 353 353 201 62 62 62 62 62 62 51 51 51 273 273
 305 305 305 305 221 221 373 373 373 373 213 213 213 353 353 353 353 353 353 62
 62 62 62 62 51 51 51 51 273 107 273 305 305 221 221 221 221 221 373 373
 213 213 353 353 353 353 353 353 353 24 24 24 62 51 51 51 51 51 273 273
 273 305 95 221 221 221 221 221 221 221 213 213 353 353 353 353 353 353 353 24
 24 24 24 51 51 51 51 51 51 315 146 146 95 221 221 221 221 221 221 221
 25 353 353 353 353 353 353 353 353 24 24 24 24 147 147 147 147 51 315 315
 315 146 146 221 221 221 221 221 352 352 352 116 353 353 353 353 353 353 100 100
 24 24 24 147 147 147 147 147 315 315 315 146 146 221 221 221 352 352 352 352
 352 126 151 353 353 293 293 100 100 100 100 100 100 147 147 147 147 147 315 315
 315 146 146 146 352 352 352 352 352 352 352 126 151 293 293 293 293 100 100 100
 100 100 173 173 173 147 147 147 315 315 146 146 146 352 352 352 352 352 352 352
 352 126 126 293 293 293 293 293 100 100 100 100 173 173 173 173 147 147 9 359
 359 359 359 359 352 352 352 352 352 352 238 238 238 293 293 293 293 293 100 100
 100 173 173 173 173 173 70 70 9 9 359 359 359 359 352 352 352 352 352 352
 238 238 238 238 293 293 293 293 388 388 388 173 173 173 173 70 70 70 9 9
 9 359 359 359 359 161 161 161 161 161 238 238 238 238 49 49 293 388 388 388
 388 388 173 173 186 70 70 70 9 9 9 9 359 359 286 286 161 161 161 161
 238 238 238 49 49 49 49 388 388 388 388 388 186 186 70 70 70 70 70 9
 9 258 258 258 258 286 161 161 161 161 343 238 185 185 49 49 49 388 388 388
 388 388 378 378 70 70 70 70 70 264 9 258 258 258 258 286 286 161 161 161
 343 185 185 185 185 49 49 388 388 388 388 388 378 378 378 70 70 70 264 264
 264 258 258 258 258 286 286 286 343 343 343 185 185 185 185 185 49 388 388 388
 388 378 378 378 378 378 70 264 264 264 264 258 258 258 258 286 286 343 343 343
 343 185 185 185 185 185 369 369 369 388 388 189 189 189 189 189 59 264 264 264
 264 264 258 258 258 286 286 343 343 331 331 331 185 185 185 185 369 369 369 369
 189 189 189 189 189 189 59 264 264 264 264 264 44 44 44 44 354 354 331 331
 331 33 33 33 185 217 369 369 369 369 21 189 189 189 189 189 59 156 156 156
 156 44 44 44 44 44 354 354 354 331 33 33 33 33 33 217 369 369 181 181
 21 292 292 292 189 189 189 156 156 156 156 44 44 44 44 44 354 354 354 354
 33 33 33 33 33 316 316 181 181 181 292 292 292 292 292 189 67 67 156 156
 156 156 44 44 44 137 354 354 354 354 33 33 33 33 33 316 316 316 181 181
 240 240 292 292 292 67 67 67 67 87 87 87 87 137 137 357 357 354 354 33
 33 33 33 33 316 316 316 374 374 374 240 240 240 292 292 198 67 67 87 87
 87 87 87 357 357 357 357 357 243 33 33 33 33 33 316 316 374 374 374 201
 240 240 240 240 72 72 72 91 91 87 87 87 87 357 357 357 357 243 243 243
 243 33 134 134 134 316 316 201 201 201 240 240 240 72 72 72 72 91 91 87
 87 87 87 87 357 357 357 243 243 243 243 243 134 134 134 316 201 201 201 201
 201 201 240 72 72 72 72 72 72 87 87 87 87 87 357 357 243 243 243 243
 243 243 134 134 134 134 201 201 201 201 201 62 62 72 72 72 72 72 72 72
 276 276 276 276 266 266 266 266 243 243 243 243 134 134 134 127 201 201 201 201
 201 62 62 72 72 72 72 72 72 72 305 305 305 305 266 266 266 266 266 266
 255 255 255 127 127 127 127 201 201 201 62 62 62 62 72 72 72 72 72 305
 305 305 305 305 266 266 266 266 266 266 255 255 255 127 127 127 127 127 201 62
 62 62 62 62 72 72 72 72 72 305 305 305 305 305 266 266 266 266 266 266
 255 213 213 127 127 127 127 127 62 62 62 62 62 62 62 51 51 51 273 273
 305 305 305 305 221 266 266 266 266 266 213 213 213 353 353 353 353 353 62 62
 62 62 62 62 51 51 51 51 273 273 305 305 305 95 221 221 221 266 266 266
 213 213 353 353 353 353 353 353 61 24 24 24 24 51 51 51 51 51 51 273
 273 95 95 95 221 221 221 221 221 25 116 116 116 353 8 8 8 353 24 24
 24 24 24 51 51 51 51 51 51 315 273 95 95 95 221 221 221 221 221 25
 25 116 116 353 8 8 8 353 24 24 24 24 24 147 147 147 147 51 315 315
 315 95 95 95 221 221 221 221 25 25 25 116 116 116 353 353 353 76 100 100
 24 24 24 147 147 147 147 147 315 315 315 95 95 95 221 221 221 352 25 25
 25 116 116 116 293 293 293 100 100 100 100 100 24 147 147 147 147 147 315 315
 315 146 146 95 352 352 352 352 352 25 352 116 116 293 293 293 293 293 100 100
 100 100 173 173 173 147 147 147 315 315 359 359 359 359 352 352 352 352 352 352
 352 352 293 293 293 293 293 293 100 100 100 173 173 173 173 173 147 70 359 359
 359 359 359 359 352 352 352 352 352 352 352 238 293 293 293 293 293 293 293 100
 100 173 173 173 173 173 70 70 9 9 359 359 359 359 359 352 352 352 352 352
 238 238 238 293 293 293 293 293 388 388 388 173 173 173 173 70 70 70 9 9
 359 359 359 359 359 161 161 161 161 161 238 238 238 238 204 204 293 388 388 388
 388 388 173 173 70 70 70 70 9 9 9 359 359 258 258 161 161 161 161 161
 161 238 238 204 204 204 204 388 388 388 388 388 388 70 70 70 70 70 70 70
 9 258 258 258 258 161 161 161 161 161 343 343 185 185 49 49 49 388 388 388
 388 388 378 378 378 70 70 70 70 70 258 258 258 258 258 258 161 161 161 161
 343 343 185 185 185 49 49 388 388 388 388 388 378 378 378 70 70 70 70 264
 264 258 258 258 258 258 286 343 343 343 343 343 185 185 185 185 49 388 388 388
 388 378 378 378 378 378 70 70 264 264 264 258 258 258 258 258 286 343 343 343
 343 343 185 185 185 185 369 388 388 388 388 378 378 378 378 378 263 263 263 264
 264 295 44 44 44 44 343 343 343 343 343 343 379 379 379 379 369 369 369 388
 388 189 189 189 189 189 263 263 263 263 264 295 44 44 44 44 354 354 343 343
 331 379 379 379 379 379 369 369 181 181 292 292 292 292 189 189 189 263 60 60
 60 44 44 44 44 44 354 354 354 354 33 33 33 379 379 316 181 181 181 181
 181 292 292 292 292 189 189 60 60 60 60 44 44 44 44 44 354 354 354 354
 298 33 33 316 316 316 316 181 181 181 181 292 292 292 292 292 60 60 60 60
 60 44 44 44 44 44 354 354 354 354 298 33 33 316 316 316 316 316 316 181
 181 292 292 292 292 292 67 60 60 87 87 87 87 44 44 357 357 354 354 298
 298 33 33 316 316 316 316 316 316 316 240 240 240 292 292 91 91 91 87 87
 87 87 87 87 357 357 357 357 298 298 298 298 316 316 316 316 316 316 316 201
 240 240 240 240 72 91 91 91 91 87 87 87 87 87 357 357 357 357 298 298
 298 134 134 134 134 316 316 316 201 201 240 240 240 72 72 72 91 91 91 91
 87 87 87 87 357 357 357 357 243 243 243 134 134 134 134 316 316 201 201 201
 201 201 72 72 72 72 72 91 91 91 87 87 87 87 357 357 266 266 266 243
 266 134 134 134 134 316 201 201 201 201 201 62 72 72 72 72 72 72 91 91
 87 87 87 266 266 266 266 266 266 266 266 266 134 134 127 127 127 201 201 201
 62 62 62 72 72 72 72 72 72 72 305 305 305 266 266 266 266 266 266 266
 266 266 216 127 127 127 127 127 201 62 62 62 62 62 72 72 72 72 72 305
 305 305 305 305 266 266 266 266 266 266 266 266 216 127 127 127 127 127 62 62
 62 62 62 62 72 72 72 72 72 305 305 305 305 305 266 266 266 266 266 266
 266 216 216 127 127 127 127 127 62 62 62 62 62 62 62 72 72 72 273 273
 305 305 305 305 266 266 266 266 266 266 216 216 216 216 127 127 127 61 61 61
 62 62 62 62 51 51 51 51 273 273 305 305 95 95 95 221 266 266 266 266
 116 116 216 353 8 8 8 61 61 61 61 24 62 62 51 51 51 51 51 273
 273 95 95 95 95 221 221 221 266 25 116 116 116 116 8 8 8 76 61 61
 24 24 24 51 51 51 51 51 51 315 95 95 95 95 95 221 221 221 221 25
 116 116 116 116 8 8 8 76 76 61 24 24 24 147 147 147 168 168 168 315
 315 95 95 95 95 221 221 221 25 25 25 116 116 116 8 76 76 76 76 76
 24 24 24 147 147 147 168 168 168 315 315 256 95 95 95 221 221 352 25 25
 25 116 116 116 293 293 76 76 76 100 100 245 24 147 147 147 168 168 168 315
 256 256 256 95 95 352 352 352 25 25 234 234 234 293 293 293 293 293 100 100
 100 245 173 173 173 147 168 168 168 359 359 359 359 359 352 352 352 352 352 352
 234 234 234 293 293 293 293 293 293 100 100 245 173 173 173 173 173 168 359 359
 359 359 359 359 359 352 352 352 352 352 234 234 234 293 293 293 293 293 293 100
 173 173 173 173 173 173 70 70 70 359 359 359 359 359 359 161 161 161 161 161
 234 234 234 204 204 204 293 293 388 388 388 178 173 173 173 70 70 70 70 9
 359 359 359 359 359 161 161 161 161 161 161 238 238 204 204 204 204 388 388 388
 388 178 178 173 70 70 70 70 70 70 9 359 359 258 258 161 161 161 161 161
 56 56 56 204 204 204 204 388 388 388 388 178 178 178 70 70 70 70 70 70
 138 258 258 258 258 161 161 161 161 161 56 56 56 56 214 214 214 388 388 388
 388 388 378 378 378 70 70 70 70 70 138 258 258 258 258 258 161 161 161 343
 343 56 56 56 214 214 214 388 388 388 388 388 378 378 378 70 70 70 70 138
 138 258 258 258 258 258 286 343 343 343 343 343 56 379 379 379 214 388 388 388
 388 378 378 378 378 378 70 263 263 263 138 258 258 258 258 258 258 343 343 343
 343 343 379 379 379 379 379 388 388 388 388 378 378 378 378 378 263 263 263 263
 295 295 295 44 44 44 44 343 343 343 343 379 379 379 379 379 379 369 369 388
 388 378 378 378 378 378 263 263 263 263 295 295 295 44 44 44 44 343 343 343
 343 379 379 379 379 379 379 181 181 181 292 292 292 292 292 189 263 263 60 60
 60 295 44 44 44 44 354 354 354 354 298 379 379 379 379 316 316 181 181 181
 181 292 292 292 292 292 60 60 60 60 60 60 44 44 44 44 354 354 354 354
 298 298 33 316 316 316 316 181 181 181 181 292 292 292 292 292 60 60 60 60
 60 60 44 44 44 44 354 354 354 298 298 298 316 316 316 316 316 316 316 181
 297 292 292 292 292 133 133 60 60 60 87 87 87 44 44 357 357 298 298 298
 298 298 316 316 316 316 316 316 316 316 297 297 297 292 292 133 133 133 60 87
 87 87 87 87 357 357 357 298 298 298 298 298 316 316 316 316 316 316 316 1
 297 297 297 297 72 91 91 91 91 91 87 87 87 87 357 357 357 357 298 298
 298 298 134 134 316 316 316 316 1 1 1 297 297 72 72 72 91 91 91 91
 87 87 87 87 357 357 357 266 298 298 298 134 134 134 134 316 316 316 1 1