# vtk DataFile Version 2.0
Data set from IO Version 6.4.197.9a0dee2
ASCII

DATASET RECTILINEAR_GRID
DIMENSIONS 31 31 31
X_COORDINATES 31 float
-4.416667 4.416667 13.250000 22.083334 30.916666 39.749996 48.583332 57.416664 66.250000 75.083336 83.916664 92.750000 101.583336 110.416664 119.250000 128.083328 136.916656 145.749985 154.583328 163.416656 172.249985 
181.083328 189.916656 198.749985 207.583328 216.416656 225.249985 234.083313 242.916656 251.749985 260.583344 
Y_COORDINATES 31 float
-4.416667 4.416667 13.250000 22.083334 30.916666 39.749996 48.583332 57.416664 66.250000 75.083336 83.916664 92.750000 101.583336 110.416664 119.250000 128.083328 136.916656 145.749985 154.583328 163.416656 172.249985 
181.083328 189.916656 198.749985 207.583328 216.416656 225.249985 234.083313 242.916656 251.749985 260.583344 
Z_COORDINATES 31 float
-4.416667 4.416667 13.250000 22.083334 30.916666 39.749996 48.583332 57.416664 66.250000 75.083336 83.916664 92.750000 101.583336 110.416664 119.250000 128.083328 136.916656 145.749985 154.583328 163.416656 172.249985 
181.083328 189.916656 198.749985 207.583328 216.416656 225.249985 234.083313 242.916656 251.749985 260.583344 
CELL_DATA 27000
SCALARS FeatureIds int 1
LOOKUP_TABLE default
 275 275 21 21 21 21 21 250 250 250 327 327 327 327 146 146 146 146 146 50
 50 50 50 50 19 19 19 275 275 275 275 74 21 21 21 21 225 250 250 250
 250 327 327 146 146 146 146 146 146 50 50 50 50 50 50 19 19 275 275 275
 275 74 21 21 21 225 225 225 250 250 250 250 208 146 146 146 146 146 146 50
 50 50 50 50 50 50 222 222 222 275 222 222 21 21 21 225 225 225 225 250
 208 208 208 208 146 146 146 146 146 50 50 50 50 50 50 300 222 222 222 222
 222 222 35 35 35 225 225 225 225 225 208 208 208 208 262 146 146 314 314 50
 50 50 59 59 59 59 222 222 222 222 222 326 35 35 35 225 225 225 225 225
 225 208 208 208 262 262 262 314 314 244 244 244 59 59 59 31 31 31 31 222
 326 326 326 35 35 225 225 225 225 225 225 208 208 262 262 262 262 88 244 244
 244 244 244 59 59 31 31 31 31 31 326 326 326 326 315 315 315 315 315 315
 315 315 216 134 115 115 115 88 244 244 244 244 244 244 177 31 31 31 31 31
 326 326 326 326 315 315 315 315 315 315 315 315 134 134 115 115 115 115 88 244
 244 244 244 177 177 177 31 31 31 31 190 326 326 326 315 315 315 315 315 315
 315 315 315 115 115 115 115 115 162 162 162 162 162 177 177 177 177 31 190 190
 16 179 179 179 315 315 315 315 315 315 315 315 175 115 115 115 115 115 162 162
 162 162 162 372 177 177 177 391 16 16 16 179 179 179 179 315 315 315 315 315
 315 175 175 175 175 115 115 115 162 162 162 162 372 372 372 177 391 391 16 16
 16 179 179 179 179 179 315 315 315 315 175 175 175 175 175 175 128 128 128 162
 162 162 162 372 372 391 391 391 16 16 179 179 179 179 179 179 179 315 315 354
 175 175 175 175 175 175 128 128 128 162 162 162 162 372 372 391 391 391 391 16
 179 179 179 179 179 179 179 179 354 354 354 175 175 175 175 175 128 128 128 162
 162 162 162 372 372 384 384 384 384 384 179 179 179 179 179 179 179 354 354 354
 354 175 175 175 184 184 184 128 128 162 162 283 283 283 296 296 384 384 384 384
 142 142 142 179 179 179 271 354 354 354 354 354 175 184 184 184 184 153 153 153
 153 283 283 283 283 296 296 296 296 384 142 142 142 142 123 123 63 63 354 354
 354 345 184 184 184 184 184 153 153 153 153 195 283 283 283 296 296 296 296 296
 347 142 142 123 123 123 63 63 63 345 345 345 345 184 184 184 184 153 153 153
 153 195 195 283 283 296 296 296 296 347 347 347 142 123 127 127 127 63 63 345
 345 345 345 184 184 184 184 153 153 153 180 195 195 321 321 321 321 296 347 347
 347 347 347 127 127 127 127 127 127 345 345 345 345 34 34 34 34 180 180 180
 180 180 321 321 321 321 321 321 347 347 347 347 131 127 127 127 127 127 127 345
 345 345 345 34 34 34 34 180 180 180 180 180 321 321 321 321 321 321 347 347
 249 249 131 131 131 127 127 127 12 107 107 107 107 34 34 34 34 180 180 180
 180 180 180 321 321 321 321 321 249 249 249 249 131 131 131 127 127 286 107 107
 107 107 107 107 151 151 180 180 180 180 180 180 180 321 321 321 321 321 249 249
 249 249 131 131 131 131 286 286 286 286 107 107 107 107 151 151 151 180 180 180
 180 180 180 321 321 321 321 321 249 249 249 245 131 131 131 166 286 286 286 286
 107 107 107 107 151 151 151 120 180 180 180 180 180 321 321 79 227 227 245 245
 245 245 245 57 166 166 166 286 286 286 107 107 107 107 151 151 120 120 120 180
 180 180 180 358 358 358 227 227 245 245 245 245 57 57 166 166 166 286 286 107
 107 107 107 107 151 120 120 120 120 120 180 50 50 358 358 358 227 227 245 245
 245 245 57 57 57 166 166 166 84 107 327 327 327 107 151 120 120 120 120 120
 50 50 50 50 19 19 19 227 245 245 275 57 57 57 57 57 166 166 84 327
 327 327 327 327 146 146 146 146 146 50 50 50 50 50 19 19 19 19 133 275
 275 74 21 21 21 21 21 250 250 250 327 327 327 327 146 146 146 146 146 50
 50 50 50 50 19 19 19 275 275 275 275 74 21 21 21 21 21 250 250 250
 250 327 327 146 146 146 146 146 146 50 50 50 50 50 50 19 19 275 275 275
 275 74 21 21 21 225 225 250 250 250 250 250 208 146 146 146 146 146 146 50
 50 50 50 50 50 300 300 300 275 275 222 222 21 21 21 225 225 225 250 250
 250 216 208 262 262 146 146 146 146 50 50 50 50 50 50 300 300 300 222 222
 222 222 35 35 35 225 225 225 225 225 216 216 216 262 262 262 262 146 146 50
 50 50 50 50 50 300 300 300 222 222 222 35 35 35 35 225 225 225 225 225
 216 216 216 262 262 262 262 262 88 88 244 244 244 244 59 31 31 31 31 222
 326 326 35 35 35 225 225 225 225 225 216 216 216 262 262 262 262 88 88 88
 244 244 244 244 59 31 31 31 31 31 326 326 326 326 315 315 315 315 315 315
 315 216 216 134 134 262 88 88 88 88 244 244 244 244 177 31 31 31 31 31
 190 326 326 326 315 315 315 315 315 315 315 315 134 134 134 134 88 88 88 88
 244 244 244 244 177 31 31 31 31 190 190 326 326 315 315 315 315 315 315 315
 315 315 134 134 134 134 115 88 88 88 244 244 244 244 177 177 31 31 190 190
 190 179 179 179 315 315 315 315 315 315 315 315 175 134 134 134 115 115 181 181
 181 162 372 372 372 177 391 391 391 190 179 179 179 179 179 315 315 315 315 315
 315 175 175 175 175 175 115 128 181 181 181 162 372 372 372 391 391 391 391 391
 179 179 179 179 179 179 315 315 315 315 175 175 175 175 175 175 128 128 128 181
 181 162 372 372 372 391 391 391 391 391 179 179 179 179 179 179 8 315 354 354
 354 175 175 175 175 175 128 128 128 181 181 162 162 372 372 391 391 391 391 391
 179 179 179 179 179 8 8 354 354 354 354 175 175 175 175 175 128 128 128 181
 181 162 162 372 372 391 296 296 296 384 179 179 179 179 179 179 8 354 354 354
 354 354 175 175 184 184 184 128 128 181 181 283 283 283 296 296 296 296 296 296
 142 179 179 179 179 271 271 271 354 354 354 354 175 184 184 184 184 184 153 153
 209 283 283 283 283 296 296 296 296 296 296 142 142 142 123 271 271 271 271 354
 354 345 345 184 184 184 184 184 153 153 209 283 283 283 283 296 296 296 296 296
 347 142 142 123 127 271 271 271 271 354 345 345 345 184 184 184 184 184 153 209
 209 283 283 283 283 296 296 296 296 296 347 347 309 127 127 127 127 271 271 345
 345 345 345 184 184 184 184 184 209 209 209 209 195 321 321 321 321 296 296 347
 347 347 127 127 127 127 127 127 127 345 345 345 345 34 34 34 34 34 209 209
 209 209 321 321 321 321 321 321 347 347 347 347 127 127 127 127 127 127 127 12
 345 345 345 34 34 34 34 34 180 180 180 180 321 321 321 321 321 321 321 249
 249 249 131 127 127 127 127 127 12 12 12 107 107 34 34 34 34 180 180 180
 180 180 321 321 321 321 321 321 249 249 249 249 131 131 127 127 127 127 12 12
 107 107 107 107 151 151 151 180 180 180 180 180 180 223 321 321 321 321 249 249
 249 249 131 131 127 127 127 286 286 107 107 107 107 107 151 151 151 180 180 180
 180 180 180 223 321 321 79 79 249 249 249 252 131 57 57 166 286 286 286 107
 107 107 107 107 151 151 151 151 180 180 180 180 180 223 321 79 79 79 79 249
 245 252 57 57 57 166 166 286 286 107 107 107 107 107 151 151 151 120 207 207
 207 207 207 358 358 358 227 227 227 245 245 252 57 57 57 166 166 84 84 84
 107 107 107 107 151 151 120 120 207 207 207 207 50 358 358 358 227 227 227 245
 245 57 57 57 57 57 166 84 84 84 327 327 327 327 2 2 120 120 207 207
 50 50 50 19 19 19 19 227 227 245 275 57 57 57 57 57 57 84 84 84
 327 327 327 327 2 146 146 146 146 50 50 50 50 50 19 19 19 19 275 275
 275 74 21 21 21 21 21 250 250 250 327 327 327 2 2 2 146 146 146 50
 50 50 50 50 19 19 19 275 275 275 275 74 21 21 21 21 21 250 250 250
 250 327 327 146 146 146 146 146 146 50 50 50 50 50 50 19 300 275 275 275
 275 74 21 21 21 21 225 250 250 250 250 250 216 146 146 146 146 146 146 50
 50 50 50 50 50 300 300 300 275 275 275 74 21 21 21 225 225 225 250 250
 250 216 216 262 262 262 146 146 146 50 50 50 50 50 50 300 300 300 300 275
 222 35 35 35 35 225 225 225 225 216 216 216 216 262 262 262 262 146 146 50
 50 50 50 50 50 300 300 300 300 300 32 32 35 35 35 225 225 225 58 216
 216 216 216 262 262 262 262 262 88 88 244 244 244 50 318 318 31 31 31 31
 32 32 32 35 35 315 315 315 315 216 216 216 216 262 262 262 262 88 88 88
 244 244 244 244 279 279 31 31 31 31 32 32 32 32 35 315 315 315 315 315
 216 216 216 134 134 262 88 88 88 88 244 244 244 244 279 279 31 31 31 31
 32 32 32 32 315 315 315 315 315 315 315 216 216 134 134 134 88 88 88 88
 244 244 244 244 279 279 31 31 31 190 190 32 32 32 315 315 315 315 315 315
 315 315 134 134 134 134 134 88 88 88 88 244 244 244 177 391 391 391 391 190
 190 179 179 179 315 315 315 315 315 315 315 315 134 134 134 134 134 181 181 181
 181 181 372 372 372 391 391 391 391 391 391 179 179 179 179 315 315 315 315 315
 315 175 175 175 175 134 134 181 181 181 181 181 372 372 372 391 391 391 391 391
 179 179 179 179 179 179 315 315 315 315 259 259 175 175 175 175 128 128 181 181
 181 181 372 372 372 391 391 391 391 391 179 179 179 179 179 8 8 315 315 354
 259 259 175 175 175 175 128 128 128 181 181 181 372 372 391 391 391 391 391 391
 75 179 179 179 179 8 8 8 354 354 354 259 175 175 175 175 128 128 128 181
 181 181 283 372 391 391 391 391 75 75 75 179 179 179 179 179 271 271 354 354
 354 354 175 175 184 184 184 128 128 181 181 283 283 283 296 296 296 296 296 75
 75 75 179 179 179 271 271 271 271 354 354 354 175 184 184 184 184 184 184 209
 209 283 283 283 283 296 296 296 296 296 75 142 142 179 179 271 271 271 271 271
 354 345 184 184 184 184 184 184 209 209 209 283 283 283 283 296 296 296 296 296
 347 309 309 309 127 271 271 271 271 144 144 345 345 184 184 184 184 184 209 209
 209 209 283 283 283 296 296 296 296 296 347 309 309 309 127 127 127 271 144 144
 144 345 345 184 184 184 184 209 209 209 209 209 283 321 321 321 321 296 296 296
 347 309 309 127 127 127 127 127 144 144 144 345 345 34 34 34 34 209 209 209
 209 209 209 321 321 321 321 321 321 347 249 249 127 127 127 127 127 127 12 12
 12 345 345 34 34 34 34 34 209 209 209 209 223 321 321 321 321 321 321 249
 249 249 127 127 127 127 127 127 12 12 12 12 107 34 34 34 34 34 180 180
 180 180 223 223 321 321 321 321 249 249 249 249 127 127 127 127 127 12 12 12
 12 107 107 107 151 151 151 180 180 180 180 180 223 223 223 321 321 79 249 249
 249 249 127 127 127 127 127 12 12 12 107 107 107 107 151 151 151 151 180 180
 180 180 223 223 223 79 79 79 79 249 249 252 252 127 127 127 127 84 84 107
 107 107 107 107 151 151 151 151 207 207 207 207 223 223 223 79 79 79 79 79
 252 252 252 57 57 57 84 84 84 84 107 107 107 107 151 151 151 207 207 207
 207 207 207 223 358 79 79 79 79 79 252 252 252 57 57 57 57 84 84 84
 84 107 107 107 151 151 151 207 207 207 207 207 207 50 358 358 227 227 227 252
 252 252 57 57 57 57 57 84 84 84 84 327 327 2 2 2 2 207 207 207
 207 50 50 50 19 19 19 227 227 245 275 252 57 57 57 57 57 84 84 84
 327 327 327 2 2 2 2 146 146 207 50 50 50 50 19 19 19 19 275 275
 214 214 21 21 21 21 21 250 250 250 327 327 327 2 2 2 2 146 146 50
 50 50 50 50 50 19 19 275 275 214 275 214 21 21 21 54 54 250 250 250
 250 327 327 2 2 2 146 146 146 50 50 50 50 50 50 300 300 300 275 275
 275 74 54 54 54 54 54 250 250 250 250 216 216 2 2 146 146 146 146 50
 50 50 50 50 50 300 300 300 300 275 275 54 54 54 54 54 54 225 250 250
 216 216 216 262 262 262 262 146 146 50 50 50 50 50 50 300 300 300 300 300
 32 54 54 54 54 54 54 58 58 58 216 216 216 262 262 262 262 262 146 50
 50 50 50 50 318 318 300 300 300 300 32 32 32 54 54 54 54 58 58 58
 216 216 216 262 262 262 262 262 88 88 88 244 50 318 318 318 318 300 300 300
 32 32 32 32 54 54 58 58 58 58 216 216 216 262 262 262 262 88 88 88
 88 244 244 279 279 279 279 31 31 32 32 32 32 32 54 350 350 315 58 58
 216 216 216 262 262 262 88 88 88 88 88 244 244 279 279 279 279 31 31 32
 32 32 32 32 350 350 350 315 315 315 315 216 216 134 134 134 88 88 88 88
 88 244 244 244 279 279 279 31 31 379 379 32 32 32 350 350 350 315 315 315
 315 315 134 134 134 134 134 88 88 88 181 244 244 244 279 391 391 391 391 379
 379 379 179 179 350 350 350 315 315 315 315 171 134 134 134 134 134 140 181 181
 181 181 372 194 391 391 391 391 391 391 391 179 179 179 179 350 315 315 315 315
 171 171 171 97 97 97 134 181 181 181 181 181 194 194 391 391 391 391 391 391
 179 179 179 179 179 179 315 315 315 315 259 259 259 97 97 97 97 181 181 181
 181 181 181 194 391 391 391 391 391 391 75 179 179 179 179 179 8 315 83 259
 259 259 259 175 97 97 128 128 181 181 181 181 181 194 391 391 391 391 391 75
 75 75 179 179 179 8 8 8 354 354 259 259 259 175 175 175 128 128 128 181
 181 181 165 165 165 391 391 75 75 75 75 75 179 179 179 271 271 271 271 354
 354 158 175 175 184 184 184 128 128 181 181 165 165 165 165 165 296 75 75 75
 75 75 179 179 179 271 271 271 271 271 158 158 158 184 184 184 184 184 209 209
 209 165 165 165 165 165 296 296 75 75 75 75 309 309 271 271 271 271 271 271
 158 158 158 184 184 184 184 184 209 209 209 209 165 165 165 165 296 296 296 75
 75 309 309 309 309 271 271 271 271 144 144 158 158 184 184 184 184 209 209 209
 209 209 165 165 165 165 296 296 296 296 309 309 309 309 309 127 127 271 144 144
 144 144 345 374 374 374 374 209 209 209 209 209 209 321 321 321 321 296 296 296
 309 309 309 309 127 127 127 127 144 144 144 144 345 374 374 374 374 209 209 209
 209 209 209 321 321 321 321 321 337 337 337 309 127 127 127 127 127 127 12 12
 12 12 374 374 374 374 374 374 209 209 209 209 223 223 321 321 321 321 337 337
 249 249 127 127 127 127 127 127 12 12 12 12 12 374 374 374 374 374 180 180
 180 223 223 223 223 321 321 337 337 337 249 249 127 127 127 127 127 12 12 12
 12 12 107 107 374 374 374 374 180 180 180 223 223 223 223 321 79 79 337 337
 249 252 252 127 127 127 127 12 12 12 12 107 107 107 151 151 151 151 180 180
 180 223 223 223 223 79 79 79 79 79 252 252 252 252 127 127 127 84 84 84
 107 107 107 107 151 151 151 151 207 207 207 207 223 223 223 79 79 79 79 79
 252 252 252 252 57 57 84 84 84 84 84 107 107 107 370 370 151 207 207 207
 207 207 223 223 223 79 79 79 79 79 252 252 252 252 57 57 84 84 84 84
 84 84 107 107 370 370 370 207 207 207 207 207 207 50 172 79 79 79 79 252
 252 252 252 57 57 57 84 84 84 84 84 84 327 2 2 2 2 207 207 207
 207 207 50 50 19 19 19 214 214 214 214 252 57 57 57 57 57 84 84 84
 84 84 327 2 2 2 2 2 207 207 50 50 50 50 19 19 19 214 214 214
 214 214 214 54 54 54 54 316 316 316 316 316 361 2 2 2 2 146 146 50
 50 50 50 50 50 73 73 73 214 214 214 214 54 54 54 54 54 54 104 104
 104 104 361 2 2 2 2 146 146 50 50 50 50 50 50 300 300 300 214 214
 214 214 54 54 54 54 54 54 104 104 104 104 216 262 262 146 320 320 320 169
 50 50 50 50 50 300 300 300 300 300 214 54 54 54 54 54 54 104 104 104
 104 216 216 262 262 262 320 320 320 169 169 50 50 50 300 300 300 300 300 300
 54 54 54 54 54 54 54 58 58 58 216 216 216 262 262 262 262 320 320 169
 169 50 50 50 318 300 300 300 300 300 32 32 54 54 54 54 54 58 58 58
 216 216 216 262 262 262 262 262 88 88 88 88 47 318 318 318 300 300 300 300
 32 32 32 54 54 54 58 58 58 58 58 216 216 216 262 262 262 88 88 88
 88 88 47 279 279 279 279 31 31 32 32 32 32 32 350 350 350 350 58 58
 58 216 216 216 262 262 88 88 88 88 88 88 244 279 279 279 279 379 379 379
 379 32 32 32 350 350 350 350 350 350 58 216 216 134 134 134 140 88 88 88
 88 88 244 279 279 279 279 379 379 379 379 379 32 350 350 350 350 350 350 350
 350 171 134 134 134 134 140 140 140 88 181 181 194 194 279 391 391 391 379 379
 379 379 135 135 135 350 350 350 350 350 171 171 171 134 97 134 140 140 140 181
 181 181 194 194 194 391 391 391 391 379 379 379 135 135 135 350 350 350 350 350
 171 171 171 97 97 97 140 140 181 181 181 181 194 194 194 391 391 391 391 391
 75 75 135 135 135 179 350 315 83 83 171 171 171 97 97 97 97 181 181 181
 181 181 194 194 194 391 391 391 391 391 75 75 179 179 179 179 389 83 83 83
 83 259 259 97 97 97 97 181 181 181 181 181 194 194 194 391 391 391 75 75
 75 75 75 179 179 8 389 389 389 83 83 259 259 175 175 97 280 181 181 181
 181 181 165 165 165 391 75 75 75 75 75 75 75 179 179 271 389 389 389 354
 158 158 158 158 212 184 233 233 331 331 331 165 165 165 165 165 75 75 75 75
 75 75 72 72 72 271 271 271 271 271 158 158 158 158 212 212 212 233 209 209
 209 165 165 165 165 165 165 75 75 75 75 75 72 72 72 271 271 271 271 271
 158 158 158 158 212 212 212 209 209 209 209 209 165 165 165 165 165 75 75 75
 75 309 309 309 309 271 271 271 271 144 158 158 158 158 374 212 212 209 209 209
 209 209 122 165 165 165 165 75 75 75 309 309 309 309 309 127 127 271 144 144
 144 158 158 374 374 374 374 209 209 209 209 209 122 122 122 321 321 296 296 75
 309 309 309 309 127 127 127 127 144 144 144 158 105 374 374 374 374 374 209 209
 209 209 122 122 122 321 337 337 337 337 337 309 309 127 127 127 127 127 12 12
 12 12 105 105 374 374 374 374 209 209 209 209 223 223 321 321 337 337 337 337
 337 337 309 127 127 127 127 127 12 12 12 12 105 374 374 374 374 374 209 209
 365 223 223 223 223 321 337 337 337 337 337 337 127 127 127 127 127 12 12 12
 12 12 132 132 374 374 374 374 374 365 365 365 223 223 223 337 337 337 337 337
 337 252 252 127 127 127 127 12 12 12 12 12 132 132 374 374 374 374 365 365
 365 365 223 223 223 79 79 79 79 79 252 252 252 252 127 127 127 84 84 84
 84 84 107 370 370 370 370 207 207 207 365 365 223 223 223 79 79 79 79 79
 252 252 252 252 252 218 84 84 84 84 84 84 107 370 370 370 370 207 207 207
 207 207 207 223 172 79 79 79 79 79 252 252 252 252 252 218 218 84 84 84
 84 84 107 370 370 370 370 207 207 207 207 207 207 172 172 172 79 79 214 214
 214 252 252 252 57 218 218 84 84 84 84 84 84 370 370 370 370 207 207 207
 207 207 50 172 172 172 172 214 214 214 214 214 214 57 57 218 218 84 84 84
 84 84 2 2 2 2 2 2 207 207 207 50 50 172 172 172 73 73 214 214
 214 214 214 214 54 54 218 316 316 316 316 316 361 361 2 2 2 320 320 50
 50 50 50 50 172 172 73 73 214 214 214 214 54 54 54 54 54 316 316 316
 316 316 361 361 340 2 320 320 320 50 50 50 50 50 53 53 53 300 214 214
 214 214 54 54 54 54 54 104 104 104 104 104 235 235 340 340 320 320 320 169
 169 50 50 50 53 53 300 300 300 214 214 54 54 54 54 54 54 104 104 104
 104 104 235 235 340 340 320 320 169 169 169 50 50 50 300 300 300 300 300 300
 54 54 54 54 54 54 54 54 104 104 104 216 235 235 340 340 320 320 320 169
 169 169 47 47 47 300 300 300 300 300 32 54 54 54 54 54 54 58 58 58
 58 216 216 235 262 262 262 320 320 88 169 47 47 47 47 47 300 300 300 241
 32 32 54 54 54 54 54 58 58 58 58 216 216 216 262 262 262 88 88 88
 88 47 47 47 47 47 279 241 241 241 379 32 32 54 54 350 350 350 58 58
 58 216 216 216 262 262 140 88 88 88 88 88 47 47 47 279 241 241 379 379
 379 379 32 54 350 350 350 350 350 350 58 171 216 134 134 140 140 140 140 88
 385 385 385 47 193 193 241 379 379 379 379 379 379 350 350 350 350 350 350 350
 171 171 171 134 134 140 140 140 140 140 385 385 385 194 193 193 391 379 379 379
 379 379 135 135 135 350 350 350 350 270 171 171 171 171 97 140 140 140 140 181
 181 385 194 194 194 193 391 391 379 379 379 380 135 135 135 350 350 350 350 270
 171 171 171 97 97 97 140 140 181 181 181 194 194 194 194 391 391 391 391 379
 75 380 135 135 135 350 350 350 83 83 171 171 171 97 97 97 280 181 181 181
 181 181 194 194 194 391 391 391 391 75 75 75 75 179 179 179 350 83 83 83
 83 171 171 97 97 280 280 280 181 181 181 331 194 194 194 391 391 391 75 75
 75 75 75 179 179 389 389 389 83 83 83 259 259 22 280 280 280 280 331 331
 331 331 194 194 165 75 75 75 75 75 75 75 75 75 72 389 389 389 389 158
 158 158 158 158 212 280 233 233 331 331 331 331 165 165 165 165 75 75 75 75
 75 75 72 72 72 271 389 389 389 158 158 158 158 158 212 212 233 233 233 233
 331 165 165 165 165 165 75 75 75 75 75 75 72 72 72 271 271 271 271 158
 158 158 158 158 212 212 212 233 233 233 209 122 122 165 165 165 165 75 75 75
 75 75 72 72 72 271 271 271 271 158 158 158 158 158 212 212 212 233 209 209
 209 122 122 122 165 165 165 75 75 75 75 309 309 309 309 127 127 271 144 158
 158 158 158 374 374 374 374 374 209 209 209 122 122 122 122 122 122 337 75 75
 337 309 309 309 127 127 127 127 144 144 130 130 105 105 374 374 374 374 98 98
 98 122 122 122 122 122 337 337 337 337 337 337 309 127 127 127 127 127 264 264
 130 130 105 105 374 374 374 374 98 98 98 122 122 122 122 122 337 337 337 337
 337 337 127 127 127 127 127 127 264 264 264 130 105 105 374 374 374 374 98 98
 365 365 223 223 223 337 337 337 337 337 337 337 127 127 127 127 127 127 264 264
 264 264 132 132 132 374 374 374 365 365 365 365 365 223 223 337 337 337 337 337
 46 46 46 127 127 127 127 264 264 264 264 264 132 132 374 374 374 374 365 365
 365 365 365 223 223 337 337 337 337 337 46 252 348 348 127 218 218 84 84 84
 84 84 132 370 370 370 370 370 365 365 365 365 365 223 223 79 79 79 79 79
 348 348 348 348 218 218 218 218 84 84 84 84 370 370 370 370 370 370 207 207
 365 365 365 172 172 172 79 79 79 214 214 348 348 348 218 218 218 218 84 84
 84 84 361 370 370 370 370 370 207 207 207 207 207 172 172 172 172 214 214 214
 214 214 348 348 218 218 218 218 316 316 316 316 361 361 370 370 370 370 207 207
 207 207 172 172 172 172 172 73 214 214 214 214 214 214 218 218 218 218 316 316
 316 316 361 361 370 370 370 370 207 207 207 50 50 172 172 172 73 73 214 214
 214 214 214 343 343 343 218 316 316 316 316 316 361 361 361 361 340 320 320 202
 202 202 202 202 53 53 53 214 214 214 214 214 54 54 54 54 343 316 316 316
 316 316 361 361 340 340 340 320 320 202 202 202 202 53 53 53 53 214 214 214
 214 214 54 54 54 54 54 54 104 104 104 235 235 235 340 340 340 320 320 169
 202 202 202 202 53 53 53 300 300 214 214 54 54 54 54 54 54 54 104 104
 104 235 235 235 340 340 340 320 320 169 169 202 202 47 53 53 300 300 300 300
 54 54 54 54 54 54 54 54 104 104 104 235 235 235 340 340 340 320 320 169
 169 169 47 47 47 47 300 300 300 300 54 54 54 54 54 54 54 54 58 58
 58 235 235 235 340 340 340 320 320 169 169 47 47 47 47 47 47 241 241 241
 241 54 54 54 54 54 288 288 288 58 58 235 235 235 262 18 262 88 88 88
 385 47 47 47 47 47 241 241 241 241 241 32 54 54 54 350 288 288 288 288
 58 282 235 235 18 18 140 140 140 385 385 385 47 47 47 47 241 241 241 241
 379 379 379 54 350 350 350 350 288 288 270 171 18 18 140 140 140 140 140 385
 385 385 385 47 193 193 193 241 241 379 379 379 380 380 350 350 350 350 350 270
 270 171 171 171 140 140 140 140 140 385 385 385 385 385 193 193 193 241 241 379
 379 380 380 135 135 350 350 350 270 270 270 171 171 171 304 140 140 140 140 385
 385 385 385 194 193 193 193 241 379 379 380 380 380 135 135 350 350 350 270 270
 270 171 171 97 97 280 280 140 181 385 385 385 194 194 194 193 391 391 391 379
 380 380 380 135 135 350 350 270 270 270 270 171 171 97 280 280 280 280 181 331
 331 385 194 194 194 391 391 391 391 75 75 75 75 135 135 389 389 83 83 83
 83 171 171 280 280 280 280 280 331 331 331 331 194 194 194 391 391 75 75 75
 75 75 75 75 313 389 389 389 83 83 83 83 22 22 280 280 280 280 331 331
 331 331 331 194 165 75 75 75 75 75 75 75 75 313 313 389 389 389 389 83
 158 158 22 22 22 280 233 233 331 331 331 331 331 165 165 165 75 75 75 75
 75 75 313 313 313 313 389 389 389 158 158 158 158 22 212 233 233 233 233 331
 331 331 122 165 165 165 75 75 75 75 75 75 313 313 313 313 271 271 271 158
 158 158 158 158 212 212 233 233 233 233 331 122 122 122 122 165 165 75 75 75
 75 75 313 313 313 313 271 271 271 158 158 158 158 158 374 212 233 233 233 233
 122 122 122 122 122 122 122 75 75 281 281 309 313 313 313 127 127 271 56 130
 130 130 130 374 374 374 374 233 233 98 122 122 122 122 122 122 122 122 281 281
 281 281 309 309 127 127 127 127 264 130 130 130 130 374 374 374 374 374 98 98
 98 122 122 122 122 122 122 337 337 281 337 337 309 127 127 127 127 127 264 264
 130 130 130 105 374 374 374 374 98 98 98 98 122 122 122 122 337 337 337 337
 337 337 127 127 127 127 127 264 264 264 264 130 130 374 374 374 374 374 98 98
 98 365 122 122 122 337 337 337 337 337 46 46 46 9 127 127 127 264 264 264
 264 264 132 132 374 374 374 374 365 365 365 365 365 223 223 337 337 337 337 337
 46 46 46 46 9 127 264 264 264 264 264 264 132 132 374 374 374 374 365 365
 365 365 365 223 223 337 337 337 337 46 46 46 348 348 9 218 218 264 264 264
 264 264 302 302 370 370 370 65 365 365 365 365 365 365 172 154 154 154 154 46
 348 348 348 348 218 218 218 218 84 84 84 84 302 302 370 370 370 65 65 365
 365 365 365 172 172 172 172 154 214 348 348 348 348 348 218 218 218 218 316 316
 316 316 361 361 370 370 370 370 65 65 207 207 172 172 172 172 172 301 214 214
 214 348 348 348 218 218 218 218 316 316 316 316 361 361 370 370 370 370 65 65
 207 207 172 172 172 172 172 214 214 214 214 214 348 348 218 218 218 218 316 316
 316 316 361 361 361 370 370 370 65 65 207 50 172 172 172 172 172 73 214 214
 214 214 214 343 343 343 343 316 316 316 316 316 361 361 361 361 361 65 65 202
 202 202 202 53 53 53 53 214 214 214 214 214 54 343 343 343 343 343 316 316
 316 316 361 361 340 340 340 340 320 202 202 202 202 53 53 53 53 53 214 214
 214 54 54 54 54 343 343 343 343 104 235 235 235 235 340 340 340 340 320 169
 202 202 202 53 53 53 53 53 29 214 214 54 54 54 54 54 54 54 104 104
 235 235 235 235 340 340 340 340 320 169 169 202 173 47 53 53 53 29 29 29
 54 54 54 54 54 54 54 54 104 104 235 235 235 235 340 340 340 340 320 169
 169 173 173 47 47 47 29 29 241 241 241 54 54 54 54 199 199 288 288 288
 235 235 235 235 235 340 340 340 340 68 68 68 47 47 47 47 47 241 241 241
 241 26 54 54 54 199 288 288 288 288 235 235 235 235 18 18 18 18 68 68
 68 68 47 47 47 47 241 241 241 241 241 26 26 54 54 288 288 288 288 288
 282 282 282 18 18 18 18 140 140 68 68 68 47 47 47 193 241 241 241 241
 241 241 241 54 350 350 288 288 288 288 270 282 18 18 18 18 18 140 140 385
 385 385 385 385 193 193 193 241 241 241 241 380 380 380 350 350 350 350 350 270
 270 270 18 18 304 304 140 140 140 385 385 385 385 385 193 193 193 241 241 241
 380 380 380 380 135 350 350 350 270 270 270 270 171 304 304 304 304 140 140 385
 385 385 385 385 193 193 193 241 241 241 380 380 380 380 135 350 350 270 270 270
 270 270 171 304 304 304 304 304 304 385 385 385 385 194 193 193 193 241 241 380
 380 380 380 380 135 350 350 270 270 270 270 270 171 304 304 280 280 280 331 331
 331 331 176 176 176 193 391 391 391 380 75 380 380 380 253 253 253 270 270 270
 270 270 22 280 280 280 280 280 331 331 331 331 176 176 176 176 391 75 75 75
 75 75 75 313 313 253 389 389 83 83 83 22 22 22 22 280 280 280 331 331
 331 331 331 176 176 176 75 75 75 75 75 75 313 313 313 313 389 389 389 83
 158 158 22 22 22 233 233 233 331 331 331 331 331 331 122 122 75 75 75 75
 75 75 313 313 313 313 389 389 389 158 158 158 22 22 22 233 233 233 233 331
 331 331 122 122 122 122 75 75 75 75 75 313 313 313 313 313 313 56 56 158
 158 158 158 158 233 233 233 233 233 233 331 122 122 122 122 122 122 75 75 75
 281 313 313 313 313 313 313 56 56 56 158 158 158 158 233 233 233 233 233 233
 122 122 122 122 122 122 122 75 281 281 281 313 313 313 313 313 313 56 56 130
 130 130 130 374 374 374 233 233 233 98 122 122 122 122 122 122 122 122 281 281
 281 281 313 313 313 127 127 56 56 130 130 130 130 130 374 374 374 98 98 98
 98 122 122 122 122 122 122 337 281 281 337 52 52 127 127 127 127 264 264 264
 130 130 130 130 374 374 374 98 98 98 98 98 122 122 122 122 337 337 337 337
 337 337 9 9 127 127 127 264 264 264 264 130 130 130 374 374 374 98 98 98
 98 98 122 122 122 122 337 337 337 337 46 46 9 9 9 9 264 264 264 264
 264 264 130 130 374 374 374 374 98 365 365 365 365 122 122 337 337 337 337 46
 46 46 9 9 9 9 82 264 264 264 264 264 130 132 374 374 374 65 365 365
 365 365 365 365 369 154 154 154 154 46 46 46 9 9 9 9 82 82 264 264
 264 264 302 302 302 302 65 65 65 365 365 365 365 369 369 154 154 154 154 46
 348 348 348 9 9 218 218 82 82 82 264 302 302 302 302 302 65 65 65 65
 365 365 369 369 369 172 154 154 154 348 348 348 348 348 218 218 218 218 82 316
 316 316 361 302 302 302 65 65 65 65 65 369 369 369 369 172 301 108 301 348
 348 348 348 348 218 218 218 218 316 316 316 316 361 361 302 302 65 65 65 65
 65 369 369 369 172 172 172 301 214 214 214 348 348 348 343 218 218 316 316 316
 316 316 361 361 361 361 65 65 65 65 65 369 369 369 172 172 172 214 214 214
 5 5 5 343 343 343 343 343 316 316 316 316 361 361 361 361 65 65 65 202
 202 202 202 202 53 53 53 53 214 214 5 5 5 343 343 343 343 343 316 316
 316 235 235 361 340 340 340 340 340 202 202 202 202 53 53 53 53 53 29 214
 5 5 5 343 343 343 343 343 343 316 235 235 235 235 340 340 340 340 340 202
 202 202 202 202 53 53 53 29 29 29 5 5 54 54 343 343 343 343 343 235
 235 235 235 235 340 340 340 340 340 202 202 202 173 173 173 53 29 29 29 29
 54 54 54 54 199 199 199 199 199 235 235 235 235 235 235 340 340 340 340 68
 68 173 173 173 173 29 29 29 29 29 26 26 26 199 199 199 199 199 288 235
 235 235 235 235 235 340 18 340 340 68 68 68 173 173 173 47 29 29 241 241
 26 26 26 199 199 199 199 288 288 288 282 282 235 235 18 18 18 18 196 68
 68 68 173 173 47 47 241 241 241 241 26 26 26 26 199 199 288 288 288 288
 282 282 282 18 18 18 18 18 196 68 68 68 68 173 47 193 241 241 241 241
 241 26 26 26 199 350 288 288 288 288 282 282 282 18 18 18 18 196 196 196
 385 385 385 385 193 193 193 241 241 241 241 241 380 380 156 350 350 350 270 270
 270 282 282 18 18 304 304 196 196 196 385 385 385 385 193 193 193 241 241 241
 380 380 380 380 156 350 350 270 270 270 270 270 304 304 304 304 304 304 196 385
 385 385 385 385 193 193 193 241 241 241 380 380 380 380 253 350 350 270 270 270
 270 270 270 304 304 304 304 304 196 385 385 385 385 176 193 193 193 241 241 380