# vtk DataFile Version 2.0
Data set from IO Version 6.4.197.9a0dee2
ASCII

DATASET RECTILINEAR_GRID
DIMENSIONS 31 31 31
X_COORDINATES 31 float
-4.416667 4.416667 13.250000 22.083334 30.916666 39.749996 48.583332 57.416664 66.250000 75.083336 83.916664 92.750000 101.583336 110.416664 119.250000 128.083328 136.916656 145.749985 154.583328 163.416656 172.249985 
181.083328 189.916656 198.749985 207.583328 216.416656 225.249985 234.083313 242.916656 251.749985 260.583344 
Y_COORDINATES 31 float
-4.416667 4.416667 13.250000 22.083334 30.916666 39.749996 48.583332 57.416664 66.250000 75.083336 83.916664 92.750000 101.583336 110.416664 119.250000 128.083328 136.916656 145.749985 154.583328 163.416656 172.249985 
181.083328 189.916656 198.749985 207.583328 216.416656 225.249985 234.083313 242.916656 251.749985 260.583344 
Z_COORDINATES 31 float
-4.416667 4.416667 13.250000 22.083334 30.916666 39.749996 48.583332 57.416664 66.250000 75.083336 83.916664 92.750000 101.583336 110.416664 119.250000 128.083328 136.916656 145.749985 154.583328 163.416656 172.249985 
181.083328 189.916656 198.749985 207.583328 216.416656 225.249985 234.083313 242.916656 251.749985 260.583344 
CELL_DATA 27000
SCALARS FeatureIds int 1
LOOKUP_TABLE default
 149 149 127 127 127 127 127 127 127 394 394 394 394 254 254 254 33 33 33 33
 33 33 33 155 193 193 193 149 149 149 149 149 127 127 127 127 127 127 127 394
 394 394 394 254 254 254 33 33 33 33 33 33 33 155 193 193 193 149 149 149
 149 127 127 127 127 127 127 127 127 394 394 394 394 254 254 254 33 33 33 217
 217 217 217 217 193 193 193 193 149 149 287 65 127 127 127 127 127 127 127 394
 394 394 394 397 254 332 191 191 191 191 217 217 217 217 299 299 299 299 287 287
 287 65 65 127 127 127 127 127 127 394 394 394 397 397 397 397 191 191 191 191
 217 217 217 217 299 299 299 287 287 287 287 65 65 65 248 248 248 235 235 235
 394 394 397 397 397 397 191 191 191 191 191 217 217 217 299 299 287 287 287 287
 287 51 51 51 248 248 248 235 235 235 235 235 397 397 397 260 260 191 191 191
 105 105 105 105 105 284 284 284 287 287 51 51 51 51 248 248 248 235 235 235
 235 235 235 397 297 260 260 260 260 260 105 105 105 105 105 284 284 284 284 51
 51 51 51 51 248 248 248 235 235 235 235 235 235 297 297 297 260 260 260 260
 105 105 105 105 376 284 284 284 284 51 51 51 51 51 51 248 235 235 235 235
 235 235 235 297 297 297 297 260 260 260 105 105 105 376 376 376 376 284 51 51
 51 51 51 51 51 248 235 235 235 235 235 235 235 235 297 297 297 297 260 402
 402 105 376 376 376 376 376 284 51 51 51 51 51 51 272 272 272 235 235 235
 235 235 235 281 281 281 281 281 281 402 402 257 257 376 376 376 376 376 51 51
 327 51 51 272 272 272 272 88 88 88 88 88 281 281 281 281 281 281 281 402
 402 257 257 257 376 376 376 327 327 327 327 266 266 272 272 272 272 88 88 88
 88 88 281 281 281 281 281 281 281 402 257 257 257 257 207 207 207 327 327 327
 266 266 266 266 272 272 272 88 88 88 88 88 281 281 281 281 281 281 281 257
 257 257 257 207 207 207 207 327 327 327 266 266 266 266 272 272 272 94 288 88
 88 323 281 281 281 281 281 281 281 257 257 257 257 207 207 207 207 327 327 327
 266 266 266 324 324 288 288 288 288 288 157 157 157 157 295 295 295 295 295 257
 257 257 257 207 207 207 207 238 333 333 333 266 324 324 324 324 288 288 288 288
 157 157 157 157 295 295 295 295 295 354 354 196 196 196 207 207 207 238 333 333
 333 324 324 324 324 324 288 288 288 288 157 157 157 157 295 295 295 295 295 354
 354 196 196 196 15 15 15 238 333 333 292 324 324 324 324 324 288 288 154 154
 154 157 157 157 295 295 295 295 354 354 354 354 196 196 15 15 15 15 292 292
 292 324 11 11 324 324 154 154 154 154 154 154 186 186 186 295 203 203 203 354
 354 354 354 354 15 15 15 382 382 292 292 11 11 11 11 324 154 154 154 154
 154 154 186 186 186 203 203 203 203 354 354 354 354 354 133 133 382 382 382 292
 336 11 11 11 11 11 140 140 154 154 154 154 186 186 186 186 203 203 203 354
 354 354 354 354 133 133 133 382 382 382 336 336 336 336 305 305 140 140 140 154
 154 112 112 112 112 112 291 291 291 354 354 354 354 133 133 133 133 133 133 133
 336 336 336 336 305 305 305 305 140 154 154 112 112 112 112 112 291 291 291 291
 354 354 354 133 133 133 133 133 133 336 336 336 336 336 305 305 305 305 140 383
 112 112 112 112 112 112 291 291 291 291 185 185 185 133 133 133 133 133 133 336
 336 336 336 336 305 305 305 305 383 387 387 387 112 112 112 395 291 291 291 33
 185 185 185 215 215 215 215 215 335 336 159 159 159 159 305 305 305 305 383 387
 387 387 387 112 395 395 395 291 33 33 33 185 185 215 215 215 215 215 335 335
 149 159 159 127 127 127 127 127 127 387 387 387 387 395 395 395 395 33 33 33
 33 33 185 155 215 215 215 215 149 149 149 149 127 127 127 127 127 127 127 394
 394 394 394 394 395 395 33 33 33 33 33 33 33 155 155 215 215 149 149 149
 149 149 127 127 127 127 127 127 127 394 394 394 394 394 254 4 33 33 33 33
 33 33 33 155 193 193 193 149 149 149 149 127 127 127 127 127 127 127 127 394
 394 394 394 394 254 332 33 33 33 33 33 33 33 33 193 193 193 193 149 149
 149 127 127 127 127 127 127 127 127 394 394 394 394 394 332 332 332 33 33 33
 217 217 217 217 193 193 193 193 149 149 65 65 65 127 127 127 127 127 127 394
 394 394 394 397 332 332 332 191 191 191 217 217 217 217 193 193 193 193 287 287
 65 65 65 65 127 127 127 127 127 394 394 394 397 397 397 332 191 191 191 191
 217 217 217 217 299 299 22 287 287 287 65 65 65 65 127 341 341 341 235 235
 285 285 397 397 397 332 191 191 191 191 191 2 217 217 22 22 22 287 287 287
 51 65 65 65 341 341 341 235 235 235 235 285 397 397 397 260 260 260 260 191
 105 105 105 105 22 22 284 284 287 287 51 51 51 51 51 341 341 235 235 235
 235 235 397 397 297 260 260 260 260 260 105 105 105 105 376 284 284 284 284 51
 51 51 51 51 51 341 235 235 235 235 235 235 235 297 297 297 260 260 260 260
 105 105 105 376 376 376 284 284 51 51 51 51 51 51 51 341 235 235 235 1
 235 235 235 297 297 297 297 260 260 260 105 105 376 376 376 376 376 263 51 51
 51 51 51 51 51 51 235 235 235 235 235 235 235 297 297 297 297 297 402 402
 402 402 376 376 376 376 376 263 51 51 51 51 51 51 272 272 272 235 235 235
 235 235 235 281 281 281 281 281 402 402 402 402 376 376 376 376 376 263 51 51
 327 51 51 272 272 272 272 272 88 88 88 88 281 281 281 281 281 281 402 402
 402 402 402 376 376 376 376 327 327 327 327 391 391 272 272 272 272 272 88 88
 88 323 281 281 281 281 281 281 281 402 402 402 257 257 207 207 207 327 327 327
 327 391 391 272 272 272 272 94 88 88 323 323 323 281 281 281 281 281 281 402
 402 257 257 207 207 207 207 327 327 327 391 391 391 272 272 272 94 94 94 323
 323 323 323 281 281 281 281 281 281 402 257 257 257 207 207 207 207 327 327 327
 333 391 391 324 324 288 288 288 288 288 323 323 157 295 295 295 295 295 295 402
 257 196 207 207 207 207 207 207 333 333 333 333 324 324 324 288 288 288 288 288
 157 157 157 157 295 295 295 295 295 295 196 196 196 196 207 207 207 333 333 333
 333 333 324 324 324 324 288 288 288 288 157 157 157 157 295 295 295 295 295 354
 354 196 196 196 15 15 15 333 333 333 292 324 324 324 324 324 288 288 154 154
 154 157 157 157 295 295 295 203 203 354 354 354 196 196 15 15 15 15 333 333
 292 11 11 11 11 324 154 154 154 154 154 154 186 186 186 203 203 203 203 354
 354 354 354 354 15 15 15 15 374 374 374 11 11 11 11 324 154 154 154 154
 154 154 186 186 186 203 203 203 203 354 354 354 354 354 133 133 133 133 133 374
 336 11 11 11 11 11 154 154 154 154 154 154 186 186 186 203 203 203 203 354
 354 354 354 133 133 133 133 133 133 374 336 336 336 11 11 305 305 154 154 154
 154 154 112 112 112 112 203 203 203 3 354 354 354 133 133 133 133 133 133 338
 336 336 336 336 305 305 305 305 383 383 383 112 112 112 112 112 291 291 291 3
 3 354 133 133 133 133 133 133 133 338 336 336 336 305 305 305 305 305 383 383
 383 112 112 112 112 112 291 291 291 3 3 185 133 133 133 133 133 133 133 336
 336 336 336 305 305 305 305 305 383 383 383 112 112 112 112 112 291 291 291 3
 33 185 392 392 215 215 215 215 335 335 335 336 336 305 305 305 305 305 383 383
 89 387 112 112 112 395 395 33 33 33 33 33 392 392 215 215 215 215 335 335
 149 159 159 127 127 127 127 127 127 89 89 89 89 395 395 395 395 33 33 33
 33 33 33 392 215 215 215 215 335 335 149 149 127 127 127 127 127 127 127 394
 89 89 89 89 395 395 33 33 33 33 33 33 33 392 215 215 215 215 149 149
 314 314 118 127 127 127 127 127 127 89 89 89 89 89 4 4 4 33 33 33
 33 33 33 33 193 193 193 193 314 314 314 127 127 127 127 127 127 127 127 394
 394 394 394 394 332 332 332 33 33 33 33 33 33 193 193 193 193 193 314 314
 13 13 127 127 127 127 127 127 127 394 394 394 394 332 332 332 332 332 33 33
 33 33 217 193 193 193 193 193 314 314 13 13 65 127 127 127 127 127 127 394
 394 394 394 332 332 332 332 332 191 191 2 2 2 193 193 193 193 193 65 65
 65 65 65 65 127 127 127 127 396 396 285 285 397 397 332 332 332 191 191 191
 2 2 2 217 22 22 22 22 65 65 65 65 65 65 341 341 341 341 341 396
 285 285 285 397 397 332 260 260 191 191 2 2 2 2 22 22 22 22 287 65
 65 65 65 65 341 341 341 341 341 235 285 285 285 397 397 260 260 260 260 260
 2 2 2 2 22 22 22 22 287 65 51 51 51 51 341 341 341 341 235 235
 235 235 235 397 297 260 260 260 260 260 2 2 105 376 22 22 263 263 263 51
 51 51 51 51 341 341 341 235 235 235 235 235 235 297 297 297 260 260 260 260
 74 74 74 376 376 376 263 263 263 51 51 51 51 51 51 341 341 235 235 235
 235 235 235 297 297 297 297 260 260 260 74 74 74 376 376 376 263 263 263 51
 51 51 51 51 51 341 235 235 235 235 235 235 235 235 297 297 297 297 402 402
 402 74 376 376 376 376 263 263 263 51 51 51 51 51 272 272 272 235 235 235
 235 235 235 281 281 281 281 281 402 402 402 402 402 376 376 376 376 263 263 51
 51 51 51 272 272 272 272 272 235 235 235 86 281 281 281 281 281 281 402 402
 402 402 402 376 376 376 376 327 327 327 327 391 391 272 272 272 272 272 88 323
 323 86 323 281 281 281 281 281 281 402 402 402 402 207 207 207 207 327 327 327
 391 391 391 272 272 272 272 272 323 323 323 323 323 281 281 281 281 281 281 402
 402 402 402 207 207 207 207 327 327 327 391 391 391 391 272 272 272 94 288 323
 323 323 323 323 281 281 281 281 281 402 402 402 207 207 207 207 207 327 327 327
 391 391 391 391 272 272 288 288 288 323 323 323 323 323 295 295 295 295 295 402
 402 196 207 207 207 207 207 207 333 333 333 391 391 391 324 288 288 288 288 288
 323 323 323 295 295 295 295 295 295 295 196 196 196 196 207 207 207 333 333 333
 333 391 324 324 324 288 288 288 288 288 157 157 157 295 295 295 295 295 295 354
 196 196 196 196 15 15 15 333 333 333 333 324 324 324 324 324 288 288 154 154
 154 157 157 295 295 295 295 295 203 354 354 196 196 196 15 15 15 15 333 333
 374 374 11 11 11 318 318 154 154 154 154 154 186 186 186 295 203 203 203 354
 354 354 354 354 15 15 15 15 374 374 374 374 11 11 11 11 154 154 154 154
 154 154 186 186 186 203 203 203 203 354 354 354 354 133 133 133 133 133 374 374
 374 374 11 11 11 11 154 154 154 154 154 154 186 186 186 186 203 203 203 203
 354 354 354 133 133 133 133 133 374 374 338 336 336 11 305 305 305 154 154 154
 154 154 112 112 112 112 203 203 3 3 3 354 133 133 133 133 133 133 133 338
 338 336 336 336 305 305 305 383 383 383 383 112 112 112 112 112 291 3 3 3
 3 3 133 133 133 133 133 133 338 338 336 336 336 336 305 305 305 383 383 383
 383 112 112 112 112 112 291 3 3 3 3 3 392 392 392 133 133 133 338 338
 336 336 336 305 305 305 305 383 383 383 383 112 112 112 112 112 291 3 3 3
 3 392 392 392 392 215 215 215 335 335 336 336 336 118 305 305 305 383 383 383
 89 89 112 112 112 112 395 33 33 33 33 392 392 392 392 215 215 215 335 335
 314 336 118 118 118 127 127 127 383 89 89 89 89 89 4 4 4 33 33 33
 33 33 392 392 392 215 215 215 314 314 314 314 118 118 127 127 127 127 127 89
 89 89 89 89 4 4 4 33 33 33 33 33 392 392 392 215 215 215 314 314
 314 314 118 118 127 127 127 127 127 89 89 89 89 89 4 4 4 33 33 33
 33 33 33 139 193 193 193 314 314 314 314 127 127 127 127 127 127 127 127 89
 89 89 89 89 332 332 332 33 33 33 33 33 33 139 193 193 193 193 314 314
 13 13 13 127 127 127 127 127 127 394 394 394 394 332 332 332 332 332 33 33
 33 2 2 20 193 193 193 193 314 314 13 13 13 127 127 127 127 127 396 396
 396 394 332 332 332 332 332 332 332 2 2 2 2 2 22 22 22 22 65 65
 65 65 65 65 127 127 127 396 396 396 285 285 285 332 332 332 332 332 191 2
 2 2 2 2 22 22 22 22 65 65 65 65 65 65 341 341 341 341 396 396
 285 285 285 397 332 332 332 332 191 2 2 2 2 2 22 22 22 22 65 65
 65 65 65 65 341 341 341 341 341 396 285 285 285 397 397 260 260 260 260 169
 2 2 2 2 22 22 22 22 263 65 51 51 51 51 341 341 341 341 341 235
 235 235 285 397 297 260 260 260 260 169 2 2 2 2 22 22 55 263 263 51
 51 51 51 51 341 341 341 341 235 235 235 235 235 201 297 297 260 260 260 169
 74 74 74 376 376 376 55 55 263 51 51 51 51 51 341 341 341 341 235 235
 235 235 235 201 201 297 297 260 260 169 74 74 74 376 376 376 263 263 263 51
 51 51 51 51 51 341 341 235 235 235 235 235 201 201 201 297 297 281 402 402
 74 74 74 376 376 376 263 263 263 51 51 51 51 51 272 272 272 235 235 235
 235 235 201 201 201 281 281 281 402 402 402 402 402 376 376 376 325 263 263 51
 51 51 51 362 272 272 272 84 235 235 86 86 86 201 281 281 281 281 281 402
 402 402 402 376 325 325 379 327 327 327 391 391 391 362 272 272 272 272 323 323
 86 86 86 281 281 281 281 281 281 402 402 402 402 379 379 379 379 379 327 327
 391 391 391 391 272 272 272 272 323 323 323 323 323 323 281 281 281 281 281 402
 402 402 5 379 379 379 379 379 327 327 391 356 391 391 272 272 272 272 323 323
 323 323 323 323 323 281 281 281 351 351 351 5 5 5 379 379 379 379 327 391
 391 391 391 391 272 272 288 288 288 323 323 323 323 323 295 295 295 295 25 351
 351 5 5 5 5 379 379 312 333 391 391 391 391 391 301 301 288 288 288 323
 323 323 323 323 295 295 295 25 25 351 351 5 5 5 5 135 312 312 333 333
 333 391 391 324 318 318 318 288 288 288 323 323 323 295 295 295 295 295 25 25
 249 249 196 5 135 135 135 312 333 333 374 374 324 324 318 318 318 318 154 154
 154 54 54 295 295 295 295 295 25 249 249 249 249 196 135 135 135 135 374 374
 374 374 11 11 318 318 318 318 154 154 154 54 54 186 186 138 203 203 371 371
 354 249 354 135 135 135 135 374 374 374 374 374 11 11 11 318 318 154 154 154
 154 54 54 186 138 138 203 203 371 371 371 371 354 133 133 133 133 374 374 374
 374 374 11 11 11 400 318 154 154 154 154 154 54 186 186 138 203 203 371 371
 371 354 354 133 133 133 133 133 374 374 338 336 336 11 400 400 400 154 383 383
 383 154 112 112 112 112 203 3 3 3 3 3 133 133 133 133 133 133 133 338
 338 336 336 336 400 400 400 383 383 383 383 383 112 112 112 112 7 3 3 3
 3 3 3 133 133 133 133 133 338 338 338 336 336 336 400 400 400 383 383 383
 383 383 112 112 112 112 7 3 3 3 3 3 392 392 392 133 133 133 278 338
 278 336 336 305 400 400 400 383 383 383 383 383 112 112 112 112 7 3 3 3
 3 392 392 392 392 392 215 278 278 278 278 278 336 118 118 224 224 224 383 383
 89 89 89 112 112 4 4 3 3 3 3 392 392 392 392 392 215 278 278 278
 314 314 118 118 118 127 224 224 224 89 89 89 89 89 4 4 4 33 33 33
 33 392 392 392 392 392 215 215 314 314 314 314 118 118 118 127 127 127 89 89
 89 89 89 89 4 4 4 33 33 33 33 33 392 392 392 392 215 314 314 314
 314 314 118 118 118 127 127 127 89 89 89 89 89 89 4 4 4 4 33 33
 33 33 139 139 139 139 139 314 314 314 314 13 127 127 127 127 127 127 360 360
 360 89 89 89 332 332 332 332 33 33 33 33 139 139 139 139 139 139 314 314
 13 13 13 127 127 127 127 127 360 360 360 360 360 332 332 332 332 332 332 33
 33 2 20 20 139 139 139 134 134 202 101 13 13 127 127 127 127 396 396 396
 360 360 360 332 332 332 332 332 332 2 2 2 20 20 20 139 22 134 134 101
 101 101 101 101 150 150 150 396 396 396 396 285 285 332 332 332 332 332 231 2
 2 2 2 20 22 22 22 22 101 101 101 101 101 101 341 341 341 396 396 396
 396 285 285 285 332 332 332 231 169 169 2 2 2 2 22 22 22 22 101 101
 101 101 101 101 341 341 341 341 396 396 396 285 285 285 332 332 260 169 169 169
 2 2 2 2 22 22 22 22 101 101 101 101 101 101 341 341 341 341 341 396
 396 396 285 285 95 95 95 169 169 169 169 2 2 75 22 22 263 263 263 101
 51 51 27 27 341 341 341 341 341 235 235 235 201 201 95 95 95 95 169 169
 169 74 74 74 376 263 263 263 263 51 51 51 27 27 341 341 341 341 235 235
 235 235 201 201 201 95 95 95 169 169 74 74 74 325 325 325 263 263 263 51
 51 51 27 27 341 341 341 341 235 235 235 201 201 201 201 201 95 95 169 169
 74 74 74 325 325 325 325 263 263 51 51 51 362 362 84 84 84 84 235 235
 235 201 201 201 201 201 281 281 402 402 402 402 74 325 325 325 325 325 263 51
 391 362 362 362 362 84 84 84 84 235 86 86 201 201 201 201 281 281 281 402
 402 402 325 325 325 325 325 325 327 327 391 391 362 362 362 84 84 84 84 323
 323 86 323 201 281 281 281 281 281 402 402 402 379 379 379 379 379 379 327 327
 391 391 391 362 362 272 84 84 323 323 323 323 323 323 281 281 281 281 351 351
 351 5 5 379 379 379 379 379 327 391 391 391 391 362 362 272 272 272 323 323
 323 323 323 323 323 281 281 25 351 351 351 5 5 5 379 379 379 379 312 391
 391 391 391 199 301 301 301 288 323 323 323 323 323 323 243 243 25 25 25 351
 351 5 5 5 5 379 312 312 312 199 199 199 199 199 301 301 301 288 288 323
 323 323 323 323 243 243 25 25 25 351 351 5 5 5 5 135 312 312 312 312
 199 199 199 199 301 318 318 318 318 323 323 323 323 323 243 243 25 25 25 25
 249 249 249 5 135 135 135 312 312 312 199 199 199 199 318 318 318 318 318 318
 54 54 54 54 138 138 25 25 25 249 249 249 249 135 135 135 135 135 312 312
 374 374 199 318 318 318 318 318 318 154 54 54 54 54 138 138 138 371 371 371
 249 249 249 135 135 135 135 135 374 374 374 374 11 11 318 318 318 318 154 154
 54 54 54 54 138 138 138 371 371 371 371 371 249 135 135 135 135 135 374 374
 374 374 11 11 52 318 318 154 154 154 54 54 54 54 138 138 138 371 371 371
 371 371 371 133 133 133 133 133 374 374 338 336 336 400 400 400 400 400 383 383
 383 54 54 261 261 138 7 7 3 3 3 3 133 133 133 133 133 133 374 338
 338 336 336 400 400 400 400 400 383 383 383 383 261 261 261 261 7 7 3 3
 3 3 3 133 133 274 133 133 278 338 278 278 336 400 400 400 400 383 383 383
 383 383 261 261 261 261 7 7 3 3 3 3 392 392 392 392 274 278 278 278
 278 278 278 400 400 400 224 224 383 383 383 383 261 261 261 261 7 7 3 3
 3 392 392 392 392 392 278 278 278 278 278 278 278 118 400 224 224 224 224 383
 89 89 89 261 261 4 7 7 3 3 3 392 392 392 392 392 278 278 278 278
 278 278 118 118 118 224 224 224 224 89 89 89 89 89 4 4 4 7 33 33
 33 392 392 392 392 392 278 278 278 278 314 314 118 118 118 127 224 224 224 89
 89 89 89 89 4 4 4 4 33 33 33 392 392 392 392 392 139 314 314 314
 202 202 118 118 344 344 344 344 89 89 89 89 89 187 187 187 187 187 317 317
 317 317 139 139 139 139 139 139 314 314 202 202 202 202 344 344 344 166 360 360
 360 360 89 187 187 187 187 187 317 317 317 317 139 139 139 139 139 134 134 202
 202 202 202 202 127 127 127 396 360 360 360 360 360 360 332 332 332 125 125 326
 326 20 20 20 139 139 139 134 134 202 202 202 202 202 150 150 150 396 396 396
 360 360 360 332 332 332 332 332 231 231 231 20 20 20 20 139 134 134 134 202
 101 101 101 101 150 150 150 396 396 396 396 360 360 360 332 332 332 231 231 231
 231 2 75 20 75 75 134 134 134 101 101 101 101 101 150 150 150 150 396 396
 396 396 396 396 332 332 231 231 231 231 231 2 75 75 75 75 22 134 134 101
 101 101 101 101 341 341 341 341 396 396 396 396 396 396 95 95 169 169 169 169
 169 2 75 75 75 75 108 108 108 101 101 101 101 101 341 341 341 341 396 396
 396 396 396 396 95 95 95 95 169 169 169 169 75 75 75 108 108 108 108 108
 51 51 27 27 341 341 341 341 341 235 235 396 201 201 95 95 95 95 169 169
 169 169 198 198 198 198 263 263 263 108 51 51 27 27 27 341 341 341 341 235
 235 201 201 201 201 95 95 95 169 169 169 169 198 198 325 325 325 263 263 51
 51 51 27 27 27 84 84 341 235 235 235 201 201 201 201 201 95 95 169 169
 169 198 198 325 325 325 325 325 263 51 51 362 362 362 362 84 84 84 84 385
 385 201 201 201 201 201 95 95 228 228 228 228 198 325 325 325 325 325 325 337
 337 362 362 362 362 84 84 84 84 385 385 201 201 201 201 201 281 281 228 228
 228 228 228 325 325 325 325 325 325 337 337 362 362 362 362 84 84 84 385 385
 385 323 201 201 201 201 281 281 228 228 228 228 228 379 379 379 379 379 337 337
 337 391 362 362 362 84 84 84 385 385 323 323 323 323 201 281 281 351 351 351
 351 5 5 5 379 379 379 379 337 337 199 199 199 362 362 301 301 275 275 275
 323 323 323 323 323 243 25 25 351 351 351 5 5 5 5 379 379 312 337 337
 199 199 199 199 301 301 301 275 275 275 275 323 323 323 243 243 25 25 25 351
 351 5 5 5 5 379 312 312 312 199 199 199 199 199 301 301 301 301 275 275
 275 323 323 323 243 243 25 25 25 351 351 5 5 5 5 135 312 312 312 199
 199 199 199 199 301 301 318 318 275 275 275 323 323 243 243 243 25 25 25 249
 249 249 249 5 135 135 135 312 312 199 199 199 199 199 318 318 318 318 318 54
 54 54 54 54 138 138 25 25 25 249 249 249 249 135 135 135 135 312 312 199
 374 199 199 52 52 318 318 318 318 54 54 54 54 54 138 138 138 371 371 371
 249 249 249 135 135 135 135 135 374 374 374 374 199 52 52 52 52 318 92 92
 54 54 54 54 138 138 138 371 371 371 371 371 249 135 135 135 135 135 374 374
 374 374 52 52 52 52 52 92 92 92 54 54 54 54 138 138 138 371 371 371
 371 371 371 274 274 274 274 274 374 374 338 172 172 172 52 52 52 92 92 92
 92 54 54 261 261 138 7 7 7 371 371 371 274 274 274 274 274 274 374 374
 278 172 172 172 172 400 400 92 92 92 92 92 261 261 261 261 7 7 7 3
 3 3 274 274 274 274 274 132 278 278 278 278 172 172 172 400 400 224 383 383
 383 261 261 261 261 7 7 7 7 3 3 3 392 392 274 274 274 132 278 278
 278 278 278 172 172 224 224 224 224 383 383 261 261 261 261 7 7 7 7 3
 3 392 392 392 392 392 278 278 278 278 278 278 278 172 344 224 224 224 224 224
 89 89 261 261 187 187 187 7 7 3 317 392 392 392 392 392 278 278 278 278
 278 278 278 118 344 344 224 224 276 276 89 89 89 187 187 187 187 187 317 317
 317 392 392 392 392 213 278 278 278 278 278 278 118 118 344 344 344 224 276 276
 89 89 89 187 187 187 187 187 317 317 317 317 392 139 139 139 139 278 278 278
 202 202 361 361 344 344 344 166 166 360 89 89 89 187 187 187 187 187 317 317
 317 317 139 139 139 139 139 139 139 202 202 202 202 202 344 344 344 166 166 360
 360 360 360 187 187 187 187 187 317 317 317 317 139 139 139 139 139 134 134 202
 202 202 202 202 202 344 166 166 166 360 360 360 360 187 187 187 125 125 125 326
 326 326 139 139 139 139 139 134 134 202 202 202 202 202 202 150 150 396 396 360
 360 360 360 360 332 125 125 125 125 326 326 75 75 20 139 139 134 134 134 202
 202 202 202 202 150 150 150 150 396 396 396 360 360 360 332 125 125 125 231 231
 231 75 75 75 75 75 134 134 134 202 101 101 101 101 150 150 150 150 396 396
 396 396 396 49 49 125 125 231 231 231 231 75 75 75 75 75 134 134 134 101
 101 101 101 101 150 150 150 150 396 396 396 396 396 49 95 95 231 231 231 231
 231 75 75 75 75 75 108 108 108 101 101 101 101 101 341 341 341 341 396 396
 396 396 396 95 95 95 95 95 169 169 169 169 75 75 75 108 108 108 108 108
 307 307 307 27 341 341 341 341 377 377 396 396 201 95 95 95 95 95 169 169
 169 198 198 198 198 198 108 108 108 108 307 307 307 27 27 341 377 377 377 377
 201 201 201 201 95 95 95 95 169 169 169 198 198 198 198 325 325 325 108 108
 307 307 307 27 84 84 377 377 377 377 201 201 201 201 201 95 95 95 95 169
 198 198 198 198 325 325 325 325 325 325 307 307 362 362 84 84 84 84 385 385
 385 201 201 201 201 201 95 95 228 228 228 228 198 325 325 325 325 325 325 337
 337 362 362 362 362 84 84 84 385 385 385 201 201 201 201 201 201 228 228 228
 228 228 228 325 325 325 325 325 337 337 337 337 362 362 362 84 84 84 385 385
 385 385 201 201 201 201 201 228 228 228 228 228 228 293 379 379 379 337 337 337
 337 337 362 362 362 84 84 84 385 385 385 385 119 119 119 119 252 351 351 351
 228 228 293 293 293 379 379 337 337 337 337 199 199 199 362 301 84 275 275 275
 275 323 119 119 119 119 25 25 351 351 351 5 293 293 293 379 379 337 337 337
 199 199 199 199 301 301 301 275 275 275 275 275 119 119 119 243 25 25 25 351
 351 5 5 5 5 312 312 312 337 199 199 199 199 199 301 301 301 275 275 275
 275 405 405 119 243 243 25 25 25 351 351 5 5 5 5 135 312 312 312 199
 199 199 199 199 199 301 301 318 275 275 405 405 405 310 243 243 25 25 25 25
 249 249 249 5 135 135 135 312 312 199 199 199 199 199 199 52 318 318 318 92
 54 54 310 310 310 310 310 25 25 249 249 249 249 135 135 135 135 312 312 199
 199 199 199 52 52 52 52 52 92 92 54 54 54 310 310 138 138 371 371 371
 371 249 249 135 135 135 135 135 374 199 199 199 199 52 52 52 52 52 92 92
 54 54 54 310 138 138 138 371 371 371 371 371 249 286 286 286 286 286 374 374
 347 347 52 52 52 52 52 92 92 92 92 54 54 54 138 138 138 371 371 371
 371 371 371 274 274 274 274 274 374 374 347 172 172 172 52 52 52 92 92 92
 92 92 92 261 261 138 7 7 7 371 371 371 274 274 274 274 274 274 274 374
 278 172 172 172 172 172 400 92 92 92 92 92 261 261 261 261 7 7 7 7
 3 3 274 274 274 274 274 132 132 132 278 172 172 172 172 172 224 224 92 92
 92 92 261 261 261 7 7 7 7 7 3 3 274 274 274 274 132 132 132 278
 278 278 172 172 172 224 224 224 224 92 92 261 261 261 261 187 7 7 7 7
 47 47 392 392 274 274 132 132 278 278 278 278 278 172 344 224 224 224 224 276
 276 89 261 187 187 187 187 187 317 317 317 317 392 392 213 213 278 278 278 278
 278 278 361 361 344 344 224 224 276 276 89 89 187 187 187 187 187 187 317 317
 317 317 392 213 213 213 213 278 278 278 278 278 361 361 344 344 344 224 276 276
 89 89 187 187 187 187 187 187 317 317 317 317 317 139 139 213 213 278 278 278
 202 202 361 361 344 344 344 166 166 166 49 393 393 187 187 187 187 187 317 317
 317 317 139 139 139 139 213 213 213 202 202 202 202 202 344 344 166 166 166 49
 49 49 49 187 187 187 187 187 317 317 317 317 139 139 139 139 139 134 134 202
 202 202 202 202 202 344 166 166 148 49 49 49 49 49 187 187 125 125 125 326
 326 91 139 139 139 139 134 134 134 202 202 202 202 202 202 150 148 148 148 49
 49 49 49 49 49 125 125 125 125 326 326 91 75 75 75 134 134 134 134 202
 202 202 202 202 150 150 150 150 396 396 49 49 49 49 49 125 125 125 231 231
 231 75 75 75 75 75 134 134 134 202 202 202 202 202 150 150 150 150 396 396
 396 49 49 49 49 125 125 231 231 231 231 75 75 75 75 75 134 134 134 202
 101 101 101 101 150 150 150 150 150 396 396 49 49 49 49 95 125 231 231 231
 231 75 75 75 75 75 108 108 108 108 101 307 101 101 150 150 150 377 377 396
 396 49 282 282 282 95 95 95 231 231 231 75 75 75 75 108 108 108 108 108
 307 307 307 307 377 377 377 377 377 377 377 377 282 282 282 95 95 95 169 169
 169 198 198 198 198 198 108 108 108 108 307 307 307 27 377 377 377 377 377 377
 377 201 201 282 282 95 95 95 95 169 198 198 198 198 198 198 108 108 108 108
 307 307 307 307 377 377 377 377 377 377 377 201 201 201 201 95 95 95 95 169
 198 198 198 198 198 325 325 315 315 315 307 307 307 362 280 84 84 377 385 385
 385 201 201 201 201 201 95 95 228 228 359 359 198 198 325 325 325 315 315 315
 337 337 362 362 280 84 84 84 385 385 385 385 201 201 201 201 252 252 228 228
 228 359 359 359 325 325 325 315 337 337 337 337 362 362 280 280 84 385 385 385
 385 385 201 201 201 277 252 252 252 228 228 359 359 293 293 379 337 337 337 337
 337 337 337 362 280 280 280 385 385 385 385 385 119 119 119 119 252 252 252 228
 359 359 293 293 293 293 337 337 337 337 337 199 199 199 81 280 280 275 275 275
 275 119 119 119 119 119 252 252 252 351 359 293 293 293 293 293 337 337 337 337
 199 199 199 199 199 301 301 275 275 275 275 405 119 119 119 119 25 25 25 351
 351 293 293 293 293 293 337 337 337 337 199 199 199 199 199 301 301 275 275 275
 405 405 405 119 243 243 25 25 25 143 143 5 5 293 293 135 312 337 337 199
 199 199 199 199 199 199 301 275 275 405 405 405 405 310 310 310 310 25 25 143
 143 143 143 5 135 135 135 312 199 199 199 199 199 199 52 52 52 52 92 405
 405 405 310 310 310 310 310 310 25 143 143 143 143 286 135 135 286 286 199 199
 199 199 199 52 52 52 52 52 92 92 92 310 310 310 310 310 310 310 371 371
 143 143 143 286 286 286 286 286 286 199 347 347 347 52 52 52 52 52 92 92
 92 54 310 310 310 310 310 371 371 371 371 371 286 286 286 286 286 286 286 286
 347 347 347 52 52 52 52 92 92 92 92 92 310 310 310 310 48 48 48 371
 371 371 286 286 286 286 286 286 286 286 347 347 172 172 52 52 52 92 92 92
 92 92 92 261 310 48 48 48 48 48 371 47 274 274 274 274 274 274 274 274
 347 172 172 172 172 172 52 92 92 92 92 92 92 261 261 48 48 48 48 48
 47 47 274 274 274 274 274 132 132 132 278 172 172 172 172 172 172 92 92 92
 92 92 261 261 261 7 7 7 7 47 47 47 274 274 274 274 132 132 132 132
 278 172 172 172 172 172 224 224 224 92 92 92 261 261 187 247 187 7 7 47
 47 47 255 255 274 274 132 132 132 278 278 278 172 172 344 344 224 224 224 276
 92 393 393 187 187 187 187 187 317 317 317 317 255 255 213 213 132 132 278 278
 278 278 361 361 344 344 344 224 276 276 276 393 393 187 187 187 187 187 317 317
 317 317 255 213 213 213 213 278 278 278 278 278 361 361 344 344 344 344 276 276
 393 393 393 187 187 187 187 187 317 317 317 317 317 139 213 213 213 213 278 278
 202 202 36 361 344 344 344 344 166 49 49 393 393 393 187 187 187 187 317 317
 317 317 139 139 139 213 213 213 144 202 202 202 202 202 344 344 166 166 166 49
 49 49 49 49 187 187 187 187 317 317 317 91 139 139 139 139 139 134 134 202
 202 202 202 202 202 148 148 148 148 49 49 49 49 49 49 187 125 125 125 326
 91 91 91 139 139 139 134 134 134 202 202 202 202 202 202 148 148 148 148 49
 49 49 49 49 49 125 125 125 125 326 91 91 91 75 75 134 134 134 134 202
 202 202 202 202 150 150 148 148 122 49 49 49 49 49 49 125 125 125 125 231
 231 91 75 75 75 75 134 134 134 202 202 202 202 202 150 150 150 150 150 49
 49 49 49 49 49 125 125 125 231 231 231 75 75 75 75 75 134 134 134 202
 202 202 202 202 150 150 150 150 150 49 49 49 49 49 282 45 125 231 231 231
 231 75 75 75 75 75 108 108 108 108 307 307 202 202 377 377 377 377 377 377
 377 49 282 282 282 282 95 231 231 231 231 75 75 75 75 108 108 108 108 108
 307 307 307 307 377 377 377 377 377 377 377 377 282 282 282 282 95 95 231 169
 231 198 198 198 198 198 108 108 108 108 307 307 307 307 377 377 377 377 377 377
 377 377 282 282 282 282 95 95 95 169 198 198 198 198 198 198 315 315 315 315
 307 307 307 307 377 377 377 377 377 377 377 277 277 282 282 282 95 146 146 359
 359 198 198 198 198 198 315 315 315 315 307 307 307 280 280 280 377 377 377 385