# vtk DataFile Version 2.0
Data set from ImportExport Version 6.5.141.ec284b7a5
ASCII

DATASET RECTILINEAR_GRID
DIMENSIONS 26 26 26
X_COORDINATES 26 float
-3.000000 3.000000 9.000000 15.000000 21.000000 27.000000 33.000000 39.000000 45.000000 51.000000 57.000000 63.000000 69.000000 75.000000 81.000000 87.000000 93.000000 99.000000 105.000000 111.000000 117.000000 
123.000000 129.000000 135.000000 141.000000 147.000000 
Y_COORDINATES 26 float
-3.000000 3.000000 9.000000 15.000000 21.000000 27.000000 33.000000 39.000000 45.000000 51.000000 57.000000 63.000000 69.000000 75.000000 81.000000 87.000000 93.000000 99.000000 105.000000 111.000000 117.000000 
123.000000 129.000000 135.000000 141.000000 147.000000 
Z_COORDINATES 26 float
-3.000000 3.000000 9.000000 15.000000 21.000000 27.000000 33.000000 39.000000 45.000000 51.000000 57.000000 63.000000 69.000000 75.000000 81.000000 87.000000 93.000000 99.000000 105.000000 111.000000 117.000000 
123.000000 129.000000 135.000000 141.000000 147.000000 
CELL_DATA 15625
SCALARS FeatureIds int 1
LOOKUP_TABLE default
 48 48 48 51 51 51 51 51 6 6 6 6 6 46 46 46 46 46 46 46
 48 48 48 48 48 48 48 48 51 51 51 51 2 6 6 6 6 6 46 46
 46 46 46 46 46 48 48 48 48 48 48 48 48 51 51 2 2 2 6 6
 6 6 46 46 46 46 46 46 46 46 46 48 48 48 48 48 48 4 51 2
 2 2 2 2 2 6 6 46 46 46 46 46 46 46 46 46 48 48 48 48
 4 4 4 4 2 2 2 2 2 2 2 2 46 46 46 32 32 32 32 46
 46 48 48 48 4 4 4 4 4 2 2 2 2 2 2 2 2 46 46 32
 32 32 32 32 32 32 4 4 4 4 4 4 4 4 4 2 2 2 2 2
 15 67 67 67 32 32 32 32 32 32 32 4 4 4 4 4 4 4 4 4
 4 15 15 15 15 15 67 67 67 67 32 32 32 32 32 4 4 4 4 4
 4 4 4 4 58 58 58 58 15 15 15 82 82 67 32 32 32 32 32 32
 4 4 4 4 4 4 4 4 58 58 58 73 73 73 82 82 82 82 82 82
 32 32 32 32 32 4 4 4 4 4 4 4 58 58 58 58 58 73 73 82
 82 82 82 82 82 82 32 32 32 32 4 4 4 4 4 4 58 58 58 58
 58 58 58 58 58 82 82 82 82 82 82 82 32 32 32 4 4 4 4 4
 4 58 58 58 58 58 58 58 58 58 82 82 82 82 82 82 82 82 71 71
 71 71 4 4 4 4 58 58 58 58 58 58 58 58 70 70 82 82 82 82
 82 82 42 71 71 71 71 4 4 4 4 58 58 58 58 58 58 58 70 70
 70 70 70 82 82 82 42 42 42 42 71 71 4 4 4 29 29 29 58 58
 58 58 70 70 70 70 70 70 70 42 42 42 42 42 42 42 42 42 42 29
 29 29 29 29 45 45 45 45 70 70 70 70 70 70 42 42 42 42 42 42
 42 42 42 42 29 29 29 29 29 45 45 45 45 70 70 70 70 70 70 42
 42 42 42 42 42 42 42 42 42 29 29 29 29 29 45 45 45 45 70 70
 70 70 70 42 42 42 42 42 42 42 42 42 42 42 29 29 29 29 29 45
 45 45 65 65 65 70 70 42 42 42 42 42 42 42 42 42 42 42 29 29
 29 29 29 29 29 65 65 65 65 65 65 70 42 42 42 42 42 42 42 42
 42 42 42 29 29 29 29 29 29 29 65 65 65 65 65 65 65 42 42 42
 42 42 42 42 42 42 42 48 48 48 48 48 29 29 29 65 65 65 65 65
 65 65 84 84 42 42 42 42 42 42 42 48 48 48 48 48 48 48 48 51
 51 51 65 65 6 6 6 46 46 46 46 46 46 46 46 48 48 48 48 48
 48 48 48 48 51 51 51 51 6 6 6 6 46 46 46 46 46 46 46 46
 48 48 48 48 48 48 48 51 51 51 51 51 51 6 6 6 6 6 46 46
 46 46 46 46 46 46 48 48 48 48 48 48 51 51 51 51 51 51 6 6
 6 6 6 46 46 46 46 46 46 46 46 48 48 48 48 48 48 51 51 51
 51 51 51 6 6 6 6 46 46 46 46 46 46 46 46 46 48 48 48 48
 48 48 51 51 51 51 2 2 6 6 6 6 46 46 46 46 46 46 46 46
 46 46 48 48 48 4 4 4 51 51 2 2 2 2 2 2 2 46 46 46
 46 46 32 46 46 46 46 48 4 4 4 4 4 4 4 15 2 2 2 15
 15 2 46 46 46 32 32 32 32 32 46 4 4 4 4 4 4 4 4 4
 15 15 15 15 15 15 67 67 67 67 32 32 32 32 32 32 4 4 4 4
 4 4 4 4 4 15 15 15 15 15 15 67 67 67 67 32 32 32 32 32
 4 4 4 4 4 4 4 4 4 58 58 15 15 15 15 15 67 67 67 67
 32 32 32 32 32 4 4 4 4 4 4 4 4 58 58 58 58 15 15 15
 15 82 82 82 82 32 32 32 32 32 4 4 4 4 4 4 4 58 58 58
 58 58 58 15 82 82 82 82 82 82 82 32 32 32 4 4 4 4 4 4
 4 58 58 58 58 58 58 58 58 66 66 82 82 82 82 82 86 86 86 4
 4 4 4 4 4 4 58 58 58 58 58 58 58 58 66 66 66 66 82 82
 82 82 86 86 71 71 4 4 4 4 4 58 58 58 58 58 58 58 58 66
 66 66 66 66 82 82 76 76 42 71 71 71 4 4 4 4 58 58 58 58
 58 58 58 66 66 66 66 66 66 66 66 42 42 42 42 42 71 4 4 4
 29 29 29 29 58 58 45 45 66 66 66 66 66 66 66 42 42 42 42 42
 42 42 42 29 29 29 29 29 29 45 45 45 45 70 70 70 70 70 70 42
 42 42 42 42 42 42 42 42 29 29 29 29 29 29 45 45 45 45 45 70
 70 70 70 42 42 42 42 42 42 42 42 42 42 29 29 29 29 29 29 29
 45 45 45 65 70 70 70 70 42 42 42 42 42 42 42 42 42 42 29 29
 29 29 29 29 29 45 65 65 65 65 65 70 42 42 42 42 42 42 42 42
 42 42 42 29 29 29 29 29 29 29 65 65 65 65 65 65 65 42 42 42
 42 42 42 42 42 42 42 42 29 29 29 29 29 29 29 65 65 65 65 65
 65 65 84 84 42 42 42 42 42 42 42 42 42 29 29 29 29 29 29 29
 65 65 65 65 65 65 65 84 84 46 46 46 46 42 42 46 48 48 48 48
 48 48 48 29 51 65 65 65 65 65 6 6 46 46 46 46 46 46 46 46
 46 48 48 48 48 48 48 48 51 51 51 51 51 51 6 6 6 46 46 46
 46 46 46 46 46 46 48 48 48 48 48 48 51 51 51 51 51 51 51 6
 6 6 46 46 46 46 46 46 46 46 46 46 48 48 48 48 48 51 51 51
 51 51 51 6 6 6 6 46 46 46 46 46 46 46 46 46 46 48 48 48
 48 51 51 51 51 51 51 51 6 6 6 6 46 46 46 46 46 46 46 46
 46 46 48 48 48 4 51 51 51 51 51 51 51 6 6 6 6 46 46 46
 46 46 46 46 46 46 46 48 48 48 4 4 4 51 51 15 15 15 15 15
 15 15 46 46 46 46 46 46 46 46 46 46 4 4 4 4 4 4 4 15
 15 15 15 15 15 15 15 81 46 46 46 32 32 32 32 46 4 4 4 4
 4 4 4 4 15 15 15 15 15 15 15 15 81 67 32 32 32 32 32 32
 32 4 4 4 4 4 4 4 4 15 15 15 15 15 15 15 15 67 67 67
 32 32 32 32 32 4 4 4 4 4 4 4 4 4 58 15 15 15 15 15
 15 15 81 67 86 86 86 86 32 32 4 4 4 4 4 4 4 4 58 58
 58 15 15 15 15 15 15 52 52 86 86 86 86 86 86 4 4 4 4 4
 4 4 58 58 58 58 58 15 15 15 15 66 66 82 86 86 86 86 86 86
 4 4 4 4 4 4 58 58 58 58 58 58 58 15 66 66 66 66 66 82
 86 86 86 86 86 4 4 4 4 4 4 58 58 58 58 58 58 58 58 66
 66 66 66 66 66 86 86 86 86 86 4 4 4 4 4 4 58 58 58 58
 58 58 58 66 66 66 66 66 66 66 76 76 76 76 76 55 55 4 4 4
 4 58 58 58 58 58 58 58 66 66 66 66 66 66 66 76 76 76 76 76
 55 55 4 4 4 29 29 29 29 29 58 58 66 66 66 66 66 66 66 66
 76 76 76 76 42 42 42 29 29 29 29 29 29 29 29 45 45 45 66 66
 66 66 66 66 66 42 42 42 42 42 42 42 29 29 29 29 29 29 29 45
 45 45 45 45 66 70 66 66 66 42 42 42 42 42 42 42 42 42 29 29
 29 29 29 29 29 45 45 65 65 65 70 66 66 42 42 42 42 42 42 42
 42 61 61 29 29 29 29 29 29 29 29 65 65 65 65 65 65 42 42 42
 42 42 42 42 42 61 61 61 29 29 29 29 29 29 29 65 65 65 65 65
 65 65 69 69 69 42 42 42 42 42 42 61 61 29 29 29 29 29 29 29
 65 65 65 65 65 65 65 84 84 69 46 42 42 42 42 42 42 61 29 29
 29 29 29 29 29 65 65 65 65 65 65 65 84 84 46 46 46 46 42 46
 46 48 48 29 29 29 29 29 29 51 65 65 65 65 65 6 6 84 84 46
 46 46 46 46 46 46 48 48 48 48 48 48 29 51 51 51 51 51 51 6
 6 6 46 46 46 46 46 46 46 46 46 46 48 48 48 26 26 51 51 51
 51 51 51 51 6 6 6 46 46 46 46 46 46 46 46 46 46 48 48 48
 26 26 51 51 51 51 51 51 51 6 6 6 46 46 46 46 46 46 46 46
 46 46 46 48 48 26 26 51 51 51 51 51 51 51 6 6 6 46 46 46
 46 46 46 46 46 46 46 46 48 48 26 26 51 51 51 51 51 51 51 6
 6 6 46 46 46 46 46 46 46 46 46 46 46 48 48 4 4 51 51 15
 15 15 15 15 15 15 15 46 46 46 46 46 46 46 46 46 46 4 4 4
 4 4 4 4 15 15 15 15 15 15 15 15 81 81 46 46 46 46 46 46
 46 4 4 4 4 4 4 4 4 15 15 15 15 15 15 15 81 81 81 81
 81 86 32 32 32 86 4 4 4 4 4 4 4 4 15 15 15 15 15 15
 15 81 81 81 81 86 86 86 86 86 86 4 4 4 4 4 4 4 4 15
 15 15 15 15 15 15 15 81 81 81 86 86 86 86 86 86 4 4 4 4
 4 4 4 58 58 15 15 15 15 15 15 15 52 52 86 86 86 86 86 86
 86 4 4 4 4 4 4 58 58 58 58 15 15 15 15 15 66 66 52 86
 86 86 86 86 86 86 4 4 4 4 4 4 58 58 58 58 58 15 15 66
 66 66 66 66 86 86 86 86 86 86 86 4 4 4 4 4 58 58 58 58
 58 58 58 15 66 66 66 66 66 66 86 86 86 86 86 55 55 4 4 4
 4 58 58 58 58 58 58 58 66 66 66 66 66 66 66 76 76 76 76 76
 55 55 55 4 4 4 58 58 58 58 58 58 58 66 66 66 66 66 66 66
 76 76 76 76 76 55 55 55 4 4 29 29 29 29 58 58 58 66 66 66
 66 66 66 66 66 76 76 76 76 76 55 55 55 29 29 29 29 29 29 29
 45 45 45 31 66 66 66 66 66 66 76 76 76 76 76 42 42 29 29 29
 29 29 29 29 45 45 45 45 31 66 66 66 66 66 66 76 76 76 76 76
 42 42 29 29 29 29 29 29 29 29 29 29 65 65 65 66 66 66 69 69
 42 42 42 42 42 61 61 61 29 29 29 29 29 29 29 29 65 65 65 65
 65 65 69 69 69 69 42 42 42 42 61 61 61 29 29 29 29 29 29 29
 65 65 65 65 65 65 65 69 69 69 69 69 42 42 42 61 61 61 29 29
 29 29 29 29 29 65 65 65 65 65 65 65 69 69 69 69 69 42 42 42
 28 28 28 29 29 29 29 29 29 29 65 65 65 65 65 65 84 84 84 69
 69 69 42 42 46 46 28 28 29 29 29 29 29 29 29 65 65 65 65 65
 65 84 84 84 84 46 46 46 46 46 46 46 28 29 29 48 29 29 51 51
 51 51 51 51 6 6 6 84 84 46 46 46 46 46 46 46 46 48 48 48
 26 26 26 51 51 51 51 51 51 6 6 77 77 46 46 46 46 46 46 46
 46 46 46 48 26 26 26 26 51 51 51 51 51 51 6 6 77 77 46 46
 46 46 46 46 46 46 46 46 48 26 26 26 26 51 51 51 51 51 51 6
 77 77 77 46 46 46 46 46 46 46 46 46 46 48 26 26 26 51 51 51
 51 51 51 15 15 15 77 77 46 46 46 46 46 46 46 46 46 46 46 26
 4 26 51 15 15 15 15 15 15 15 15 15 81 46 46 46 46 46 46 46
 46 46 46 4 4 4 4 4 15 15 15 15 15 15 15 15 81 81 81 81
 46 46 46 46 46 46 46 4 4 4 4 4 4 15 15 15 15 15 15 15
 15 81 81 81 81 81 86 86 86 86 86 4 4 4 4 4 4 4 15 15
 15 15 15 15 15 15 81 81 81 81 81 86 86 86 86 86 4 4 4 4
 4 4 4 15 15 15 15 15 15 15 15 81 81 81 81 86 86 86 86 86
 86 4 4 4 4 4 4 4 58 15 15 15 15 15 15 15 15 52 52 52
 86 86 86 86 86 86 4 4 4 4 4 4 4 58 58 15 15 15 15 15
 15 15 52 52 52 86 86 86 86 86 86 4 4 4 4 4 4 58 58 58
 58 15 15 15 15 66 66 66 66 86 86 86 86 86 86 86 4 4 4 4
 4 58 58 58 58 58 58 15 15 66 66 66 66 66 47 47 86 86 86 86
 55 55 4 4 4 4 58 58 58 58 58 58 58 66 66 66 66 66 66 47
 47 76 76 76 55 55 55 55 4 4 29 29 58 58 58 58 58 31 31 31
 66 66 66 66 47 76 76 76 76 55 55 55 55 55 4 29 29 29 29 29
 58 31 31 31 31 31 66 66 66 76 76 76 76 76 76 55 55 55 28 29
 29 29 29 29 29 29 29 31 31 31 31 66 66 66 76 76 76 76 76 76
 55 28 28 28 29 29 29 29 29 29 45 45 31 31 31 31 66 66 66 76
 76 76 76 76 76 28 28 28 28 29 29 29 29 29 29 29 29 65 65 65
 31 66 69 69 69 69 76 76 76 76 28 61 28 28 29 29 29 29 29 29
 29 65 65 65 65 65 75 69 69 69 69 69 69 42 42 61 61 28 28 29
 29 29 29 29 29 54 65 65 65 65 65 65 69 69 69 69 69 69 42 28
 28 61 28 28 29 29 29 29 29 54 54 65 65 65 65 65 65 69 69 69
 69 69 69 69 28 28 28 28 28 29 29 29 29 29 54 54 65 65 65 65
 65 65 69 69 69 69 69 69 46 46 28 28 28 28 29 29 29 29 29 29
 65 65 65 65 65 65 84 84 84 46 46 46 46 46 46 46 28 28 28 28
 26 26 26 51 51 51 51 51 51 6 77 77 84 46 46 46 46 46 46 46
 46 46 28 28 28 26 26 26 51 51 51 51 51 51 51 77 77 77 77 77
 46 46 46 46 46 46 46 46 26 26 26 26 26 51 51 51 51 51 51 51
 77 77 77 77 77 46 46 46 46 46 46 46 46 26 26 26 26 26 51 51
 51 51 51 51 77 77 77 77 77 46 46 46 46 46 46 46 46 46 26 26
 26 26 26 51 51 51 51 15 15 15 77 77 77 77 46 46 46 46 46 46
 46 46 46 59 26 26 26 26 15 15 15 15 15 15 15 15 77 77 77 46
 46 46 46 46 46 46 46 46 4 4 4 4 4 15 15 15 15 15 15 15
 15 21 81 81 81 81 46 46 46 46 46 46 4 4 4 4 18 18 15 15
 15 15 15 15 15 15 21 81 81 81 81 81 86 86 86 86 4 4 4 4
 18 18 18 15 15 15 15 15 15 15 15 21 81 81 81 81 86 86 86 86
 86 4 4 4 4 18 18 18 18 15 15 15 15 15 15 15 81 81 81 81
 86 86 86 86 86 86 4 4 4 4 18 18 18 18 15 15 15 15 15 15
 15 15 52 52 52 86 86 86 86 86 86 4 4 4 18 18 18 18 18 15
 15 15 15 15 15 78 78 52 52 52 86 86 86 86 86 86 4 4 4 18
 18 18 18 58 58 15 15 15 15 15 78 78 78 78 86 86 86 86 86 86
 86 86 4 4 4 18 18 18 58 58 58 15 15 15 66 66 66 66 66 47
 47 47 86 86 55 55 55 55 4 4 18 74 74 74 74 58 58 15 66 66
 66 66 66 66 47 47 47 76 76 55 55 55 55 55 4 29 74 74 74 74
 74 74 31 31 31 31 66 66 66 47 47 76 76 76 55 55 55 55 55 28
 29 29 74 74 74 74 74 31 31 31 31 66 66 66 47 76 76 76 76 76
 55 55 55 28 28 29 29 64 64 64 64 64 31 31 31 31 31 66 76 76
 76 76 76 76 76 28 28 28 28 28 29 29 29 64 64 64 64 31 31 31
 31 31 66 76 76 76 76 76 76 76 28 28 28 28 28 29 29 29 29 64
 64 64 65 65 31 31 75 69 69 69 76 76 76 76 28 28 28 28 28 28
 29 29 29 29 29 54 65 65 65 75 75 75 69 69 69 69 69 69 28 28
 28 28 28 28 28 29 29 29 29 54 54 54 65 65 75 75 75 69 69 69
 69 69 69 69 28 28 28 28 28 28 28 29 29 29 54 54 54 65 65 75
 75 75 69 69 69 69 69 69 69 28 28 28 28 28 28 28 29 29 29 54
 54 54 65 65 75 75 75 69 69 69 69 69 69 46 46 28 28 28 28 28
 28 29 29 29 54 54 24 24 24 75 75 77 77 77 69 69 69 46 46 46
 46 28 28 28 28 26 26 26 51 51 51 24 24 24 24 77 77 77 77 77
 46 46 46 46 46 46 46 28 28 28 26 26 26 51 51 51 24 24 24 24
 77 77 77 77 77 77 46 46 46 46 46 46 59 26 26 26 26 26 51 51
 51 51 51 51 77 77 77 77 77 77 77 46 46 46 46 46 59 59 26 26
 26 26 26 22 51 51 51 51 15 77 77 77 77 77 77 77 46 46 46 46
 46 46 59 59 26 26 26 22 22 22 51 15 15 15 15 77 77 77 77 77
 46 46 46 46 46 46 46 59 59 59 26 22 22 22 22 15 15 15 15 15
 15 77 77 77 77 46 46 46 46 46 46 46 46 59 59 18 22 22 15 15
 15 15 15 15 15 15 21 21 81 81 81 46 46 46 46 46 46 4 20 4
 18 18 18 15 15 15 15 15 15 15 21 21 21 81 81 81 86 86 86 86
 86 86 4 4 4 18 18 18 18 15 15 15 15 15 15 21 21 21 81 81
 86 86 86 86 86 86 86 4 18 18 18 18 18 18 15 15 15 15 15 15
 21 21 21 81 81 86 86 86 86 86 86 86 4 18 18 18 18 18 18 15
 15 15 15 15 15 15 21 52 52 52 86 86 86 86 86 86 86 4 18 18
 18 18 18 18 15 15 15 15 15 15 78 78 78 52 86 86 86 86 86 86
 86 86 4 18 18 18 18 18 18 15 15 53 53 53 78 78 78 78 78 86
 86 86 86 86 86 86 86 18 18 18 18 18 18 18 74 15 53 53 53 78
 78 78 78 78 47 47 86 86 86 55 55 55 55 18 18 18 74 74 74 74
 74 53 53 53 78 78 78 78 78 47 47 76 76 76 55 55 55 55 55 18
 74 74 74 74 74 74 74 31 31 31 31 66 66 47 47 76 76 76 76 55
 55 55 55 28 28 28 74 74 74 74 74 74 31 31 31 31 31 66 11 47
 76 76 76 76 76 55 55 28 28 28 28 64 64 64 64 64 64 31 31 31
 31 31 11 11 76 76 76 76 76 76 28 28 28 28 28 28 28 64 64 64
 64 64 31 31 31 31 31 11 11 76 76 76 76 76 28 28 28 28 28 28
 28 28 64 64 64 64 64 75 75 75 75 75 75 69 69 76 76 76 76 28
 28 28 28 28 28 28 28 29 64 64 64 65 75 75 75 75 75 75 69 69
 69 69 69 28 28 28 28 28 28 28 28 28 29 29 54 54 54 75 75 75
 75 75 75 69 69 69 69 69 28 28 28 28 28 28 28 28 28 29 29 54
 54 54 75 75 75 75 75 75 69 69 69 69 69 28 28 28 28 28 28 28
 28 28 28 29 54 54 24 24 75 75 75 75 75 69 69 69 69 69 46 28
 28 28 28 28 28 28 28 28 29 54 24 24 24 24 75 75 75 77 77 77
 69 69 46 46 46 28 28 28 28 28 26 26 26 51 24 24 24 24 24 75
 75 77 77 77 77 77 46 46 46 46 46 28 28 28 28 26 26 22 22 22
 51 24 24 24 24 77 77 77 77 77 77 50 46 46 46 59 59 59 59 59
 26 26 22 22 22 22 13 13 13 77 77 77 77 77 77 77 50 50 46 46
 59 59 59 59 59 26 22 22 22 22 22 51 13 13 77 77 77 77 77 77
 77 50 46 46 46 59 59 59 59 59 22 22 22 22 22 22 15 15 15 15
 77 77 77 77 77 77 50 46 46 46 46 59 59 59 59 22 22 22 22 22
 22 15 15 15 15 15 77 77 77 77 77 46 46 46 46 46 59 59 59 59
 22 22 22 22 22 15 15 15 15 15 21 21 21 21 81 81 86 86 86 46
 46 59 20 20 20 18 18 18 22 15 15 15 15 15 15 21 21 21 21 81
 81 86 86 86 86 86 20 20 20 18 18 18 18 18 15 15 15 15 15 15
 21 21 21 21 81 86 86 86 86 86 86 86 4 18 18 18 18 18 18 15
 15 15 15 15 15 21 21 21 81 81 86 86 86 86 86 86 86 18 18 18
 18 18 18 18 18 15 15 15 15 15 21 21 21 52 86 86 86 86 86 86
 86 86 18 18 18 18 18 18 18 18 15 53 53 53 78 78 78 78 78 86
 86 86 86 86 86 86 86 18 18 18 18 18 18 18 18 53 53 53 53 78
 78 78 78 78 78 86 86 86 86 86 86 80 18 18 18 18 18 18 18 74
 53 53 53 53 78 78 78 78 78 78 86 86 86 86 55 55 55 55 18 18
 18 74 74 74 74 74 53 53 53 78 78 78 78 78 47 47 76 76 76 55
 55 55 55 28 18 74 74 74 74 74 74 74 53 31 31 31 78 78 78 47
 76 76 76 76 55 55 55 28 28 28 28 74 74 74 74 74 74 31 31 31
 31 31 11 11 11 76 76 76 76 76 28 28 28 28 28 28 64 64 64 64
 64 64 31 31 31 31 31 11 11 11 76 76 76 76 28 28 28 28 28 28
 28 64 64 64 64 64 64 64 31 31 31 11 11 11 11 76 76 76 76 28
 28 28 28 28 28 28 28 64 64 64 64 64 75 75 75 75 75 75 11 11
 76 76 76 28 28 28 28 28 28 28 28 28 64 64 64 64 75 75 75 75
 75 75 75 75 69 69 69 28 28 28 28 28 28 28 28 28 28 28 28 54
 54 75 75 75 75 75 75 75 69 69 69 69 69 28 28 28 28 28 28 28
 28 28 28 28 54 75 75 75 75 75 75 75 75 69 69 69 69 69 28 28
 28 28 28 28 28 28 28 28 28 54 24 24 75 75 75 75 75 75 69 69
 69 69 69 28 28 28 28 28 28 28 28 28 28 28 24 24 24 24 75 75
 75 75 77 77 77 77 43 46 46 28 28 28 28 28 28 26 26 26 24 24
 24 24 24 24 75 75 77 77 77 77 77 77 46 46 46 59 59 28 28 28
 26 22 22 22 22 22 13 13 13 13 77 77 77 77 77 50 50 50 59 59
 59 59 59 59 59 22 22 22 22 22 22 13 13 13 13 77 77 77 77 77
 50 50 50 50 59 59 59 59 59 59 22 22 22 22 22 22 13 13 13 13
 77 77 77 77 77 50 50 50 50 59 59 59 59 59 59 22 22 22 22 22
 22 22 15 13 77 77 77 77 77 77 50 50 50 50 59 59 59 59 59 59
 22 22 22 22 22 22 22 15 15 15 7 7 77 77 77 50 50 50 50 59
 59 59 59 59 59 22 22 22 22 22 22 15 15 15 15 7 7 7 21 77
 50 86 86 86 59 59 59 20 20 20 18 18 22 22 22 15 15 15 15 15
 21 21 21 21 81 81 86 86 86 86 20 20 20 20 20 18 18 18 18 15
 15 15 15 15 15 21 21 21 21 81 86 86 86 86 86 86 20 20 20 20
 18 18 18 18 18 15 15 15 15 15 21 21 21 21 81 86 86 86 86 86
 86 20 20 20 18 18 18 18 18 18 15 15 15 15 15 21 21 21 21 86
 86 86 86 86 86 86 80 20 18 18 18 18 18 18 18 49 49 53 49 78
 78 78 78 78 86 86 86 86 86 86 80 80 80 18 18 18 18 18 18 18
 49 53 53 53 78 78 78 78 78 56 56 56 56 86 86 80 80 80 18 18
 18 18 18 18 49 49 49 53 49 78 78 78 78 78 56 56 56 56 56 56
 80 80 80 18 18 18 74 74 74 74 49 49 53 49 78 78 78 78 56 56
 56 56 56 56 56 55 55 55 28 18 74 74 74 74 74 74 49 49 49 78
 78 78 56 56 56 56 56 56 56 56 55 28 28 28 28 28 74 74 74 74
 74 74 31 49 31 31 11 11 11 11 56 56 56 56 28 28 28 28 28 28
 28 64 64 64 64 64 64 64 31 31 31 11 11 11 11 56 56 56 56 28
 28 28 28 28 28 28 28 64 64 64 64 64 64 75 31 75 11 11 11 11
 56 56 56 28 28 28 28 28 28 28 28 28 64 64 64 64 64 75 75 75
 75 75 75 11 11 56 56 28 28 28 28 28 28 28 28 28 28 28 64 64
 64 75 75 75 75 75 75 75 75 69 69 69 28 28 28 28 28 28 28 28
 28 28 28 28 64 75 75 75 75 75 75 75 75 75 69 69 69 28 28 28
 28 28 28 28 28 28 28 28 28 75 75 75 75 75 75 75 75 75 75 69
 69 69 43 28 28 28 28 28 28 28 28 28 28 28 75 75 75 75 75 75
 75 75 75 75 69 43 43 43 43 28 28 28 28 28 28 28 28 28 28 24
 24 24 75 75 75 75 75 77 77 77 43 43 43 43 59 59 28 28 28 28
 28 28 28 28 24 24 24 24 75 75 75 77 77 77 77 43 43 43 43 59
 59 59 59 59 28 22 22 22 22 22 22 13 13 13 13 77 77 77 50 50
 50 50 43 59 59 59 59 59 59 59 59 22 22 22 22 22 13 13 13 13
 77 77 77 77 50 50 50 50 59 59 59 59 59 59 59 22 22 22 22 22
 22 13 13 13 13 77 77 77 77 50 50 50 50 59 59 59 59 59 59 59
 22 22 22 22 22 22 22 13 13 10 77 77 77 77 50 50 50 50 59 59
 59 59 59 59 59 22 22 22 22 22 22 22 15 15 7 7 7 7 77 77
 50 50 50 59 59 59 59 59 59 59 20 22 22 22 22 22 22 15 15 7
 7 7 7 7 7 50 50 50 59 59 59 20 20 20 20 20 20 22 22 22
 22 15 15 15 15 7 7 7 7 7 50 86 86 86 44 20 20 20 20 20
 20 18 18 18 18 15 15 15 15 15 21 21 21 21 81 86 86 86 86 44
 20 20 20 20 20 18 18 18 18 18 15 15 15 15 15 21 21 21 21 56
 86 86 86 86 86 20 20 20 20 20 18 18 18 18 18 49 49 49 49 49
 21 21 21 21 56 56 56 86 86 86 80 20 20 20 18 18 18 18 18 49
 49 49 49 49 49 78 78 78 56 56 56 56 56 56 86 80 80 80 18 18
 18 18 18 18 49 49 49 49 49 49 78 78 78 56 56 56 56 56 56 56
 80 80 80 18 18 18 18 18 18 49 49 49 49 49 49 78 78 78 56 56
 56 56 56 56 56 80 80 80 18 18 39 39 74 74 49 49 49 49 49 49
 78 78 56 56 56 56 56 56 56 56 80 80 80 18 18 39 39 74 74 74
 49 49 49 49 49 78 56 56 56 56 56 56 56 56 56 56 28 28 28 28
 39 39 74 74 74 49 49 49 49 49 83 56 56 11 56 56 56 56 56 56
 28 28 28 28 28 28 28 64 64 64 64 64 64 49 83 83 11 11 11 56
 56 56 56 56 28 28 28 28 28 28 28 28 64 64 64 64 64 64 75 83
 75 75 11 11 56 56 56 56 56 28 28 28 28 28 28 28 28 64 64 64
 64 64 75 75 75 75 75 75 11 56 56 56 56 28 28 28 28 28 28 28
 28 28 28 64 64 64 75 75 75 75 75 75 75 75 75 56 69 28 28 28
 28 28 28 28 28 28 28 28 64 64 75 75 75 75 75 75 75 75 75 75
 69 69 28 28 28 28 28 28 28 28 28 28 28 28 75 75 75 75 75 75
 75 75 75 75 75 43 43 43 60 28 28 28 28 28 28 28 28 28 28 75
 75 75 75 75 75 75 75 75 75 50 43 43 43 60 60 28 28 28 28 28
 28 28 28 28 75 75 75 75 75 75 75 75 75 77 50 43 43 43 43 60
 59 59 17 17 17 17 17 28 72 72 75 75 75 75 75 75 75 77 77 50
 50 43 43 43 59 59 59 59 59 17 59 22 22 22 22 22 13 13 13 10
 10 10 50 50 50 50 50 43 59 59 59 59 59 59 59 59 22 22 22 22
 22 13 13 13 10 10 10 50 50 50 50 50 50 59 59 59 59 59 59 59
 59 22 22 22 22 22 13 13 13 10 10 10 77 50 50 50 50 50 59 59
 59 59 59 59 59 22 22 22 22 22 22 22 10 10 10 10 10 77 50 50
 50 50 50 59 59 59 59 59 59 59 22 22 22 22 22 22 22 10 10 10
 7 7 7 7 50 50 50 50 59 59 59 59 59 59 59 20 22 22 22 22
 22 22 10 10 10 7 7 7 7 7 50 50 50 44 44 44 20 20 20 20
 20 20 22 22 22 22 15 15 10 10 7 7 7 7 7 50 50 44 44 44
 44 20 20 20 20 20 20 18 18 22 15 15 15 15 15 21 21 21 21 56
 56 86 44 44 44 44 20 20 20 20 20 20 18 18 49 49 49 49 49 49
 49 21 21 21 56 56 56 56 44 44 44 20 20 20 20 20 18 18 18 49
 49 49 49 49 49 49 21 21 56 56 56 56 56 44 44 44 44 20 20 20
 18 18 18 18 49 49 49 49 49 49 49 78 56 56 56 56 56 56 56 44
 44 80 80 20 20 18 18 18 18 49 49 49 49 49 49 49 78 56 56 56
 56 56 56 56 56 80 80 80 20 18 18 18 18 49 49 49 49 49 49 49
 49 56 56 56 56 56 56 56 56 56 80 80 80 20 18 39 39 39 49 49
 49 49 49 49 49 49 56 56 56 56 56 56 56 56 56 56 80 80 9 18
 39 39 39 39 49 49 49 49 49 49 49 56 56 56 56 56 56 56 56 56
 30 30 30 30 39 39 39 39 39 49 49 37 37 49 49 83 56 56 56 56
 56 56 56 56 56 30 30 30 28 39 39 39 39 39 64 64 37 37 37 83
 83 83 83 56 56 56 56 56 56 30 30 30 30 28 28 28 28 64 64 64
 64 37 37 75 83 83 83 83 56 56 56 56 56 30 30 30 30 28 28 28
 28 28 64 64 64 64 75 75 75 75 75 83 83 83 56 56 56 56 30 30
 30 28 28 28 28 28 28 28 64 64 75 75 75 75 75 75 75 75 75 75
 19 19 30 30 30 28 28 28 28 28 28 28 28 64 62 75 75 75 75 75
 75 75 75 75 75 19 19 60 28 28 28 28 28 28 28 28 28 28 28 75
 75 75 75 75 75 75 75 75 75 75 19 19 60 60 60 28 28 28 28 28
 17 28 28 75 75 75 75 75 75 75 75 75 75 75 19 19 43 60 60 60
 60 28 17 17 17 17 17 17 75 75 75 75 75 75 75 75 75 75 75 50
 43 43 43 60 60 60 59 17 17 17 17 17 17 72 72 72 75 75 75 75
 75 75 77 50 50 50 43 43 60 60 59 59 59 17 17 59 59 22 22 72
 72 72 10 10 10 10 10 50 50 50 50 50 59 59 59 59 59 59 59 59
 59 22 22 22 22 72 72 10 10 10 10 10 10 50 50 50 50 59 59 59
 59 59 59 59 59 59 22 22 22 22 22 72 10 10 10 10 10 10 50 50
 50 50 50 59 59 59 59 59 59 59 59 22 22 22 22 22 72 10 10 10
 10 10 10 50 50 50 50 50 59 59 59 59 59 59 59 22 22 22 22 22
 22 10 10 10 10 10 10 10 10 50 50 50 50 59 59 59 59 59 59 59
 20 22 22 22 22 22 10 10 10 10 10 10 7 7 7 50 50 44 44 44
 44 44 20 20 20 20 20 22 22 22 22 10 10 10 10 10 10 7 7 7
 50 44 44 44 44 44 44 20 20 20 20 20 20 22 22 49 49 49 10 10
 10 10 21 21 56 56 44 44 44 44 44 44 20 20 20 20 20 18 18 49
 49 49 49 49 49 49 49 21 56 56 56 56 44 44 44 44 44 20 20 20
 20 20 18 49 49 49 49 49 49 49 49 49 56 56 56 56 56 56 44 44
 44 44 44 20 20 18 18 18 49 49 49 49 49 49 49 49 49 56 56 56
 56 56 56 56 44 44 44 44 44 20 18 18 18 49 49 49 49 49 49 49
 49 56 56 56 56 56 56 56 56 56 44 44 44 44 20 39 39 39 49 49
 49 49 49 49 49 49 56 56 56 56 56 56 56 56 56 56 9 9 9 9
 39 39 39 39 49 49 49 49 49 49 49 56 56 56 56 56 56 56 56 56
 56 56 9 9 9 39 39 39 39 37 37 37 37 49 49 49 56 56 56 56
 56 56 56 56 56 30 30 30 9 9 39 39 39 39 37 37 37 37 37 37
 83 56 56 56 56 56 56 56 56 30 30 30 30 30 39 39 39 39 37 37
 37 37 37 37 83 83 83 83 56 56 56 56 56 56 30 30 30 30 30 30
 39 39 39 37 37 37 37 37 37 83 83 83 83 56 56 56 56 56 30 30
 30 30 30 30 30 28 28 62 62 62 62 62 62 75 75 83 83 83 83 56
 56 56 30 30 30 30 30 30 30 28 28 28 28 62 62 62 62 75 75 75
 75 75 75 19 19 19 19 30 30 30 30 30 30 30 28 28 28 28 62 62
 62 75 75 75 75 75 75 75 19 19 19 19 60 30 30 30 30 30 28 28
 28 28 28 62 62 75 75 75 75 75 75 75 75 19 19 19 19 60 60 60
 60 17 17 17 17 17 17 17 75 75 75 75 75 75 75 75 75 75 19 19
 19 19 60 60 60 60 17 17 17 17 17 17 17 72 72 75 75 75 75 75
 75 75 19 19 19 19 19 60 60 60 60 59 17 17 17 17 17 72 72 72
 72 72 75 75 75 75 19 19 19 19 50 19 60 60 60 60 59 17 17 17
 59 72 72 72 72 72 72 72 10 10 10 10 19 19 19 19 19 59 59 59
 59 59 59 59 59 59 22 72 72 72 72 72 10 10 10 10 10 10 19 19
 50 50 59 59 59 59 59 59 59 59 59 22 22 72 72 72 72 10 10 10
 10 10 10 50 19 50 50 59 59 59 59 59 59 59 59 59 22 22 22 72
 72 72 10 10 10 10 10 10 10 50 50 50 59 59 59 59 59 59 59 59
 20 22 22 22 72 72 72 10 10 10 10 10 10 10 50 50 50 34 59 59
 59 59 59 59 59 20 20 22 22 72 72 10 10 10 10 10 10 10 10 10
 50 44 44 44 44 44 44 44 20 20 20 20 20 22 72 72 10 10 10 10
 10 10 10 10 10 44 44 44 44 44 44 44 44 20 20 20 20 20 22 49
 49 49 10 10 10 10 10 10 10 56 44 44 44 44 44 44 44 44 20 20
 20 20 20 49 49 49 49 49 49 49 49 49 56 56 56 56 44 44 44 44
 44 44 44 20 20 20 20 20 49 49 49 49 49 49 49 49 49 56 56 56
 56 56 56 44 44 44 44 44 44 20 20 20 18 49 49 49 49 49 49 49
 49 49 56 56 56 56 56 56 56 44 44 44 44 44 44 9 9 37 37 49
 49 49 49 49 49 49 56 56 56 56 56 56 56 56 56 44 44 44 44 44
 9 39 37 37 49 49 49 49 49 49 49 56 56 56 56 56 56 56 56 56
 56 9 9 9 9 9 39 37 37 37 37 49 49 49 49 49 56 56 56 56
 56 56 56 56 56 56 79 9 9 9 39 39 39 37 37 37 37 37 37 37
 49 56 56 56 56 56 56 56 56 56 79 79 79 9 9 39 39 39 37 37
 37 37 37 37 37 37 56 56 56 56 56 56 56 56 30 79 79 79 30 30
 39 39 39 37 37 37 37 37 37 37 83 83 56 56 56 56 56 56 30 30
 30 30 30 30 30 30 39 39 37 37 37 37 37 37 37 83 83 83 56 56
 56 56 56 30 30 30 30 30 30 30 30 39 62 62 62 62 62 62 37 75
 83 83 83 19 19 19 56 30 30 30 30 30 30 30 30 28 28 62 62 62
 62 62 62 75 75 75 75 19 19 19 19 19 30 30 30 30 30 30 30 30
 28 28 62 62 62 62 62 75 75 75 75 75 19 19 19 19 19 19 30 30
 30 30 30 30 30 17 17 62 62 62 62 62 75 75 75 75 75 19 19 19
 19 19 19 60 60 60 30 17 17 17 17 17 17 72 75 75 75 75 75 75
 75 19 19 19 19 19 19 60 60 60 60 17 17 17 17 17 17 72 72 72
 75 75 75 75 75 75 19 19 19 19 19 19 60 60 60 60 59 17 17 17
 17 17 72 72 72 72 72 72 72 10 19 19 19 19 19 19 19 19 60 60
 59 59 59 17 17 59 72 72 72 72 72 72 72 10 10 10 19 19 19 19
 19 19 19 59 59 59 59 59 59 59 59 72 72 72 72 72 72 72 10 10
 10 10 19 19 19 19 19 59 59 59 59 59 59 59 59 59 72 72 72 72
 72 72 10 10 10 10 10 10 19 19 19 34 34 59 59 59 59 59 59 59
 88 72 72 72 72 72 72 10 10 10 10 10 10 10 19 34 34 34 34 59
 59 59 59 59 59 88 88 88 72 72 72 72 10 10 10 10 10 10 10 34
 34 34 34 34 44 59 59 59 59 59 20 23 88 88 72 72 72 10 10 10
 10 10 10 10 10 34 34 44 44 44 44 44 44 44 20 20 23 23 88 72
 72 72 10 10 10 10 10 10 10 10 44 44 44 44 44 44 44 44 44 20
 20 23 23 23 72 49 49 10 10 10 10 10 10 10 56 44 44 44 44 44
 44 44 44 44 20 20 20 23 23 49 49 49 49 49 49 10 10 56 56 56
 56 44 44 44 44 44 44 44 44 44 44 44 23 49 49 49 49 49 49 49
 49 49 56 56 56 56 56 44 44 44 44 44 44 44 44 44 44 49 49 49
 49 49 49 49 49 49 49 56 56 56 56 56 56 44 44 44 44 44 44 44
 9 9 37 37 37 49 49 49 49 49 49 56 56 56 56 56 56 56 56 44
 44 44 44 9 9 9 9 37 37 37 37 49 49 49 49 49 56 56 56 56
 56 56 56 56 56 44 9 9 9 9 9 37 37 37 37 37 37 37 37 37
 49 56 56 56 56 56 56 56 56 56 79 79 9 9 9 9 39 37 37 37
 37 37 37 37 37 37 56 56 56 56 56 56 56 56 56 79 79 79 9 9
 39 39 37 37 37 37 37 37 37 37 37 56 56 56 56 56 56 56 56 30
 79 79 79 30 30 30 39 37 37 37 37 37 37 37 37 3 3 56 56 56
 56 56 56 30 30 30 30 30 30 30 30 39 37 37 37 37 37 37 37 37
 3 3 3 56 56 56 56 56 30 30 30 30 30 30 30 30 30 37 62 62
 62 62 62 37 37 3 3 3 19 19 19 19 30 30 30 30 30 30 30 30
 30 30 62 62 62 62 62 62 75 75 75 19 19 19 19 19 19 30 30 30
 30 30 30 30 30 30 62 62 62 62 62 62 62 75 75 75 19 19 19 19
 19 19 19 87 30 30 30 30 30 30 17 17 62 62 62 62 62 62 75 75
 19 19 19 19 19 19 19 19 87 87 87 30 30 17 17 17 17 72 72 72
 72 75 75 75 75 19 19 19 19 19 19 19 19 19 87 87 17 17 17 17
 17 72 72 72 72 72 72 72 72 75 19 19 19 19 19 19 19 19 19 60
 59 59 17 17 17 17 72 72 72 72 72 72 72 72 10 19 19 19 19 19
 19 19 19 59 59 59 59 59 59 17 72 72 72 72 72 72 72 72 72 10
 10 19 19 19 19 19 19 19 59 59 59 59 59 59 59 88 88 72 72 72
 72 72 72 10 10 10 10 19 19 19 19 19 34 59 59 59 59 59 59 59
 88 88 88 72 72 72 72 72 10 10 10 10 10 19 19 34 34 34 34 59
 59 59 59 59 59 88 88 88 72 72 72 72 10 10 10 10 10 10 19 34
 34 34 34 34 34 59 59 59 59 59 88 88 88 88 72 72 72 10 10 10
 10 10 10 10 34 34 34 34 34 34 44 44 44 59 12 88 88 88 88 88
 72 72 10 10 10 10 10 10 10 34 34 34 34 34 44 44 44 44 44 44
 23 23 23 88 88 88 72 10 10 10 10 10 10 10 25 34 34 44 44 44
 44 44 44 44 44 23 23 23 23 88 88 49 10 10 10 10 10 10 10 56
 44 44 44 44 44 44 44 44 44 44 23 23 23 23 88 49 49 49 49 10
 10 10 10 56 56 56 44 44 44 44 44 44 44 44 44 44 23 23 23 37
 49 49 49 49 49 49 63 56 56 56 56 56 44 44 44 44 44 44 44 44
 44 23 37 37 37 37 49 49 49 49 49 56 56 56 56 56 56 56 44 44
 44 44 44 44 44 9 37 37 37 37 37 37 49 49 49 49 56 56 56 56
 56 56 56 56 44 44 44 44 44 44 9 37 37 37 37 37 37 37 37 37
 37 56 56 56 56 56 56 56 56 56 44 44 9 9 9 9 37 37 37 37
 37 37 37 37 37 37 56 56 56 56 56 56 56 56 56 79 9 9 9 9
 9 37 37 37 37 37 37 37 37 37 37 56 56 56 56 56 56 56 56 30
 79 79 79 9 9 39 37 37 37 37 37 37 37 37 37 37 3 56 56 56
 56 56 56 56 30 79 79 79 30 30 30 37 37 37 37 37 37 37 37 37
 3 3 3 56 56 56 56 56 30 30 30 30 30 30 30 30 37 37 37 37
 37 37 37 37 3 3 3 3 3 56 56 56 30 30 30 30 30 30 30 30
 30 37 37 37 62 62 62 37 37 3 3 3 3 19 8 8 8 30 30 30
 30 30 30 30 30 30 37 37 62 62 62 62 62 37 3 3 3 19 19 8
 8 8 19 30 30 30 30 30 30 30 30 62 62 62 62 62 62 62 75 19
 19 19 19 19 19 19 19 19 87 87 87 30 30 30 30 17 40 40 62 62
 62 62 62 75 19 19 19 19 19 19 19 19 19 87 87 87 87 30 30 30
 17 72 72 72 72 72 72 72 75 19 19 19 19 19 19 19 19 19 87 87
 87 87 17 17 17 17 72 72 72 72 72 72 72 72 19 19 19 19 19 19
 19 19 19 19 87 59 59 59 17 17 72 72 72 72 72 72 72 72 72 10
 19 19 19 19 19 19 19 19 19 59 59 59 59 59 59 88 88 72 72 72
 72 72 72 72 10 19 19 19 19 19 19 19 19 34 59 59 59 59 59 59
 88 88 88 72 72 72 72 72 72 10 10 10 19 19 19 19 34 34 34 59
 59 59 59 59 59 88 88 88 88 72 72 72 72 10 10 10 10 19 19 19
 34 34 34 34 34 59 59 59 59 59 88 88 88 88 72 72 72 72 10 10
 10 10 10 19 34 34 34 34 34 34 34 59 59 59 88 88 88 88 88 88
 72 72 72 10 10 10 10 10 10 34 34 34 34 34 34 34 44 12 12 12
 88 88 88 88 88 88 72 10 10 10 10 10 10 36 34 34 34 34 34 34
 44 44 12 12 12 23 23 23 88 88 88 88 10 10 10 10 10 10 36 25
 34 34 34 44 44 44 44 44 12 12 23 23 23 23 88 88 88 10 10 10
 10 10 36 36 25 34 34 44 44 44 44 44 44 44 44 23 23 23 23 88
 88 68 68 68 10 63 63 63 57 57 56 44 44 44 44 44 44 44 44 44
 23 23 23 23 37 37 49 49 49 49 63 63 63 57 57 56 56 44 44 44
 44 44 44 44 44 23 23 23 37 37 37 37 37 37 37 63 63 63 57 57
 56 56 56 44 44 44 44 44 44 44 14 37 37 37 37 37 37 37 37 37
 63 63 63 56 56 56 56 56 56 44 44 44 44 44 44 14 37 37 37 37
 37 37 37 37 37 63 63 63 56 56 56 56 56 56 56 44 44 14 9 14