# vtk DataFile Version 2.0
Data set from IO Version 6.4.197.9a0dee2
ASCII

DATASET RECTILINEAR_GRID
DIMENSIONS 31 31 31
X_COORDINATES 31 float
-2.566667 2.566667 7.700000 12.833333 17.966667 23.099998 28.233334 33.366669 38.500000 43.633331 48.766666 53.900002 59.033333 64.166664 69.300003 74.433334 79.566666 84.699997 89.833328 94.966667 100.099998 
105.233330 110.366669 115.500000 120.633331 125.766663 130.899994 136.033325 141.166672 146.300003 151.433334 
Y_COORDINATES 31 float
-2.566667 2.566667 7.700000 12.833333 17.966667 23.099998 28.233334 33.366669 38.500000 43.633331 48.766666 53.900002 59.033333 64.166664 69.300003 74.433334 79.566666 84.699997 89.833328 94.966667 100.099998 
105.233330 110.366669 115.500000 120.633331 125.766663 130.899994 136.033325 141.166672 146.300003 151.433334 
Z_COORDINATES 31 float
-2.566667 2.566667 7.700000 12.833333 17.966667 23.099998 28.233334 33.366669 38.500000 43.633331 48.766666 53.900002 59.033333 64.166664 69.300003 74.433334 79.566666 84.699997 89.833328 94.966667 100.099998 
105.233330 110.366669 115.500000 120.633331 125.766663 130.899994 136.033325 141.166672 146.300003 151.433334 
CELL_DATA 27000
SCALARS FeatureIds int 1
LOOKUP_TABLE default
 48 48 48 275 275 275 275 275 216 216 216 13 13 13 13 247 284 284 284 284
 278 278 353 353 353 353 230 230 230 48 48 19 48 275 275 275 275 216 216 216
 216 13 13 247 247 247 284 284 284 284 278 278 368 368 368 368 230 230 230 325
 48 166 166 166 166 275 216 216 216 216 216 247 247 247 247 247 247 284 284 284
 368 368 368 368 368 368 230 230 230 325 166 166 166 166 166 166 362 362 362 362
 378 247 247 247 247 247 247 247 284 284 368 368 368 368 368 368 368 230 230 325
 166 166 166 166 166 166 362 362 362 378 378 378 378 247 247 247 247 247 328 328
 328 368 368 368 368 368 368 230 384 384 384 166 166 166 166 166 166 121 121 121
 378 378 378 247 247 247 247 247 328 328 328 368 368 368 368 368 368 384 384 384
 384 166 166 166 166 166 138 138 121 121 378 378 378 247 247 247 247 247 328 328
 328 368 368 368 368 368 384 384 384 384 384 384 166 166 166 166 138 138 138 121
 121 378 378 213 213 213 213 213 98 98 152 152 152 152 368 368 384 384 384 384
 384 384 166 166 166 166 138 138 138 121 322 322 322 213 213 213 213 213 98 98
 152 152 152 152 152 187 384 384 384 384 384 201 201 201 201 201 138 138 138 356
 322 322 322 322 213 213 213 213 98 152 152 152 152 152 187 187 187 384 384 384
 71 201 201 201 201 201 201 356 356 356 322 322 322 322 213 213 213 213 213 152
 152 152 152 187 187 187 187 187 71 71 71 201 201 201 201 201 201 356 356 356
 356 322 322 322 213 213 213 213 279 152 152 95 95 95 187 187 187 187 71 71
 72 201 201 201 201 201 201 356 356 356 242 322 322 322 213 213 279 279 279 279
 95 95 95 95 95 187 187 187 72 72 72 72 201 201 201 201 176 176 242 242
 242 242 322 259 259 259 279 279 279 279 95 95 95 95 95 95 187 72 72 72
 72 72 201 68 68 68 176 176 242 242 242 271 271 259 259 259 279 279 279 279
 95 95 95 95 95 95 95 72 72 72 72 72 68 68 68 68 176 176 176 271
 271 271 271 271 259 259 279 279 279 279 95 95 387 387 387 387 244 244 244 72
 72 72 68 68 68 68 176 176 176 271 271 271 271 271 271 259 359 359 359 359
 162 95 387 387 387 387 244 244 244 244 40 40 209 209 209 209 209 209 271 271
 271 271 271 271 271 271 359 359 359 162 162 162 162 387 387 244 244 244 244 40
 40 40 209 209 209 209 209 209 271 271 271 271 271 271 271 271 359 359 359 162
 162 162 162 162 387 244 244 244 40 40 40 40 209 209 209 209 209 209 209 271
 271 271 271 271 271 374 359 359 359 162 162 162 162 162 162 244 244 40 40 40
 40 40 209 209 209 209 209 209 209 271 271 271 271 271 374 374 374 374 162 162
 162 162 162 162 280 280 280 40 40 40 40 40 209 209 225 225 225 225 225 78
 271 271 374 374 374 374 374 374 374 162 162 162 162 167 280 280 280 40 40 40
 313 313 313 225 225 225 225 225 78 78 78 78 374 374 374 374 374 374 374 162
 167 167 167 167 167 280 280 40 40 313 313 313 313 313 225 225 225 225 78 78
 78 78 374 374 374 374 374 374 374 374 167 167 167 167 167 167 280 323 323 313
 313 313 313 313 313 225 348 348 78 78 78 78 374 374 374 374 374 374 374 374
 167 167 167 167 167 167 167 323 323 323 313 313 313 313 313 313 348 348 348 78
 78 78 374 374 374 374 374 374 51 51 167 167 167 167 38 38 38 323 323 323
 313 313 313 313 313 37 37 37 37 37 37 215 215 215 215 374 374 51 51 51
 51 167 38 38 38 38 38 323 323 313 313 313 313 313 275 275 37 37 37 37
 37 215 215 215 215 374 374 51 51 51 51 51 38 38 38 38 272 272 272 313
 48 48 48 275 275 275 275 37 37 37 37 215 215 215 215 215 51 51 51 51
 51 51 353 38 38 38 272 272 272 48 48 48 48 275 275 275 275 37 37 37
 37 13 13 13 13 284 284 284 51 51 51 51 353 353 353 38 272 272 272 48
 48 48 48 275 275 275 275 275 216 216 216 13 13 13 13 247 195 195 284 284
 278 278 278 353 353 382 382 230 325 325 325 19 19 275 275 275 275 362 362 362
 362 13 13 13 247 247 247 284 284 284 278 278 278 368 368 368 230 230 325 325
 325 19 19 275 275 275 362 362 362 362 362 247 247 247 247 247 247 247 284 284
 278 278 368 368 368 368 368 230 325 325 325 166 166 166 166 362 362 362 362 362
 362 247 247 247 247 247 247 247 247 247 368 368 368 368 368 368 368 230 325 325
 166 166 166 166 166 166 362 362 362 362 378 174 174 247 247 247 247 247 328 328
 328 368 368 368 368 368 368 230 384 86 86 166 166 166 166 166 362 121 121 121
 121 226 174 247 247 247 247 247 328 76 328 368 368 368 368 368 368 384 384 86
 86 86 166 166 166 166 121 121 121 121 121 226 226 247 247 247 247 247 328 328
 328 200 200 200 200 200 384 384 384 86 86 86 166 166 166 166 121 121 121 121
 121 226 226 213 213 213 213 213 98 152 152 152 152 200 200 200 236 236 384 384
 86 86 201 201 166 253 253 253 121 121 121 226 322 213 213 213 213 213 98 152
 152 152 152 152 200 200 236 236 236 384 86 201 201 201 201 201 253 253 253 356
 322 322 322 322 213 213 213 213 213 152 152 152 152 152 187 187 187 236 236 236
 71 201 201 201 201 201 253 253 356 356 356 322 322 322 213 213 213 213 213 152
 152 152 152 187 187 187 187 187 71 71 71 201 201 201 201 201 253 356 356 356
 356 322 322 322 213 213 213 279 279 152 152 152 95 95 187 187 187 187 71 71
 71 201 201 201 201 201 201 356 356 356 356 322 322 259 259 259 279 279 279 279
 95 95 95 95 95 187 187 187 71 71 134 201 201 201 201 201 176 176 176 356
 356 271 259 259 259 259 279 279 279 279 95 95 95 95 95 95 187 187 134 134
 134 134 201 68 68 68 176 176 176 176 271 271 271 259 259 259 279 279 279 279
 95 95 95 95 95 95 95 134 134 134 134 134 134 68 68 68 176 176 176 271
 271 271 271 271 259 259 279 279 279 279 95 95 95 95 95 95 244 244 134 134
 134 134 68 68 68 68 176 176 176 271 271 271 271 271 271 259 359 359 359 359
 162 95 387 387 387 244 244 244 244 134 134 209 209 209 209 209 209 209 271 271
 271 271 271 271 271 271 359 359 359 162 162 162 162 387 387 244 244 244 244 244
 40 209 209 209 209 209 209 209 271 271 271 271 271 271 271 271 359 359 359 162
 162 162 162 162 244 244 244 244 244 40 40 209 209 209 209 209 209 209 209 271
 271 271 271 271 271 271 359 29 29 162 162 162 162 162 244 244 244 244 40 40
 40 209 209 209 209 209 209 209 209 271 271 271 271 271 374 374 374 29 29 29
 162 162 162 65 65 280 280 40 40 40 40 209 209 209 209 209 209 209 209 271
 271 271 271 374 374 374 374 29 29 29 29 162 65 65 65 65 280 40 40 40
 313 313 313 313 225 225 225 225 78 78 78 390 374 374 374 374 374 374 29 29
 29 167 167 167 167 280 280 40 313 313 313 313 313 313 225 225 225 348 78 78
 78 374 374 374 374 374 374 374 29 29 167 167 167 167 167 167 263 263 313 313
 313 313 313 313 313 313 348 348 348 78 78 390 374 374 374 374 374 374 119 119
 167 167 167 167 167 167 263 263 313 313 313 313 313 313 313 313 348 348 348 348
 78 215 215 215 374 374 374 374 119 119 167 167 167 167 38 38 382 263 313 313
 313 313 313 313 313 275 348 348 348 348 348 215 215 215 215 374 374 51 51 51
 51 167 38 38 38 38 382 382 313 313 313 313 313 313 275 275 275 37 37 37
 37 215 215 215 215 215 374 51 51 51 51 38 38 38 38 382 382 382 313 313
 48 48 48 275 275 275 275 37 37 37 37 215 215 215 215 215 51 51 51 51
 51 189 38 38 38 382 382 272 272 48 48 48 48 275 275 275 275 275 37 37
 37 13 13 13 13 13 284 284 51 51 189 189 189 353 382 382 382 272 272 48
 298 298 298 275 275 275 275 275 275 362 267 13 13 13 13 195 195 195 284 189
 189 189 189 189 211 382 382 382 325 325 325 19 298 298 275 275 362 362 362 362
 362 13 13 247 247 247 195 195 284 189 278 278 278 368 211 211 211 211 325 325
 325 298 298 298 298 362 362 362 362 362 362 174 247 247 247 247 247 247 247 278
 278 278 368 368 368 211 211 211 325 325 132 132 132 298 362 362 362 362 362 362
 362 174 174 247 247 247 247 247 247 247 368 368 368 368 368 368 368 211 325 325
 132 132 132 166 166 362 362 362 362 362 362 174 174 174 247 247 247 247 328 328
 328 368 368 368 368 368 368 86 86 86 86 86 166 166 166 362 362 121 121 121
 121 226 174 174 247 247 247 247 328 328 328 368 200 200 200 200 368 86 86 86
 86 86 86 166 166 166 121 121 121 121 226 226 226 226 247 247 247 247 328 328
 328 200 200 200 200 200 236 236 86 86 86 86 86 166 166 253 253 121 121 121
 226 226 226 226 213 213 247 247 328 152 152 152 200 200 200 200 236 236 236 86
 86 86 86 201 253 253 253 253 253 121 226 226 226 226 213 213 213 213 152 152
 152 152 152 200 200 200 236 236 236 86 86 86 201 201 201 253 253 253 253 253
 226 226 322 322 213 213 213 213 152 152 152 152 152 152 187 187 187 236 236 236
 71 201 201 201 201 201 253 253 253 356 356 322 322 322 213 213 213 213 152 152
 152 152 152 187 187 187 187 187 236 71 71 201 201 201 201 201 253 253 356 356
 356 356 322 322 322 213 213 279 279 152 152 152 95 95 187 187 187 187 71 71
 71 201 201 201 201 201 21 21 21 356 356 356 322 310 259 259 279 279 279 279
 95 95 95 95 95 187 187 187 71 71 134 201 201 201 201 201 21 21 21 356
 356 271 310 310 259 259 279 279 279 279 95 95 95 95 95 95 95 134 134 134
 134 134 201 68 68 68 176 176 176 176 271 271 271 259 259 259 279 279 279 279
 95 95 95 95 95 95 95 134 134 134 134 134 134 68 68 68 176 176 176 271
 271 271 271 271 259 259 279 279 279 279 95 95 95 95 95 95 244 134 134 134
 134 134 209 209 68 209 209 176 176 271 271 271 271 271 271 259 359 359 359 359
 95 95 53 53 95 244 244 244 134 134 134 134 209 209 209 209 209 209 271 271
 271 271 271 271 271 271 359 359 359 359 162 162 53 53 53 244 244 244 244 134
 40 209 209 209 209 209 209 209 271 271 271 271 271 271 271 271 359 359 359 162
 162 266 53 53 53 244 244 244 244 40 40 209 209 209 209 209 209 209 209 271
 271 271 271 271 271 271 359 29 29 29 29 266 65 65 65 244 244 244 244 40
 365 209 209 209 209 209 209 209 209 271 271 271 271 271 271 374 29 29 29 29
 29 29 65 65 65 65 244 9 365 365 365 365 209 209 209 209 209 209 221 271
 271 271 271 374 374 374 374 29 29 29 29 29 65 65 65 65 9 9 365 365
 313 313 313 313 225 225 221 221 221 390 390 390 390 374 374 374 374 29 29 29
 29 29 65 65 65 65 9 9 365 365 313 313 313 313 313 221 221 221 221 390
 390 390 390 374 374 374 374 29 29 29 29 167 167 167 167 167 263 263 263 313
 313 313 313 313 313 313 348 348 348 390 390 390 390 374 374 374 374 119 119 119
 119 167 167 167 167 382 263 263 263 313 313 313 313 313 313 313 348 348 348 348
 390 390 215 215 374 374 374 119 119 119 119 167 167 167 382 382 263 263 263 313
 313 313 313 313 313 275 127 127 127 127 127 215 215 215 215 215 374 119 119 119
 119 167 38 382 382 382 382 263 263 313 313 313 313 313 275 275 127 127 127 127
 127 215 215 215 215 215 215 119 119 119 189 189 382 382 382 382 382 382 382 313
 313 313 313 275 275 275 275 127 127 127 127 215 215 215 215 215 195 30 30 189
 189 189 189 382 382 382 382 382 382 48 48 48 48 275 275 275 275 275 37 37
 13 13 13 13 13 13 195 30 30 189 189 189 189 189 382 382 382 382 382 48
 298 298 298 298 298 275 275 362 267 267 267 267 33 33 33 195 195 195 30 30
 189 189 189 211 211 211 211 211 211 325 298 298 298 298 298 298 362 362 362 267
 267 267 33 33 33 247 195 195 110 110 189 189 189 211 211 211 211 211 211 325
 132 132 298 298 298 362 362 362 362 362 267 267 33 33 247 247 247 247 247 110
 278 278 211 211 211 211 211 211 211 325 132 132 132 298 298 362 362 362 362 362
 362 174 174 174 247 247 247 247 247 247 368 368 368 211 211 211 211 211 211 86
 132 132 132 166 166 362 362 362 362 362 362 174 174 174 247 247 247 247 328 328
 328 368 368 368 211 211 211 211 86 86 86 86 86 166 166 362 362 362 362 362
 226 174 174 174 247 247 247 247 328 328 328 200 200 200 200 200 211 86 86 86
 86 86 86 166 166 362 121 121 121 121 226 226 226 226 247 247 247 247 328 328
 328 200 200 200 200 200 236 236 86 86 86 86 86 86 149 149 253 253 121 121
 226 226 226 226 226 213 247 247 328 152 152 200 200 200 200 200 236 236 236 86
 86 86 86 149 149 149 253 253 253 253 226 226 226 226 226 213 213 52 52 152
 152 152 200 200 200 200 236 236 236 86 86 256 256 201 149 253 253 253 253 253
 226 226 226 226 226 213 52 52 52 52 152 152 152 200 200 187 236 236 236 236
 256 256 201 201 201 253 253 253 253 253 356 322 322 322 310 310 52 52 52 52
 152 152 152 152 187 187 187 236 236 236 256 201 201 201 201 201 253 253 253 356
 356 356 310 310 310 310 310 52 52 52 152 152 95 95 187 187 187 187 71 71
 71 201 201 201 201 201 21 21 21 356 356 310 310 310 310 310 279 279 279 52
 95 95 122 122 95 187 187 187 71 71 134 134 201 55 55 21 21 21 21 21
 21 310 310 310 310 310 279 279 279 279 95 95 122 122 95 95 95 134 134 134
 134 134 134 55 68 21 21 21 21 21 271 310 310 310 310 310 279 279 279 279
 95 95 122 95 95 95 95 134 134 134 134 134 134 68 68 209 176 176 176 271
 271 271 271 310 310 310 279 279 279 43 43 95 95 95 95 95 134 134 134 134
 134 134 134 209 209 209 209 209 176 271 271 271 271 271 271 271 359 359 359 359
 266 53 53 53 53 244 244 134 134 134 134 134 209 209 209 209 209 386 386 271
 271 271 271 271 271 271 359 359 359 266 266 266 53 53 53 244 244 244 134 134
 134 209 209 209 209 209 209 209 386 271 271 271 271 271 271 271 359 359 359 266
 266 266 266 53 53 244 244 244 244 134 365 209 209 209 209 209 209 209 209 271
 271 271 271 271 271 172 29 29 29 29 266 266 266 65 65 65 9 9 9 9
 365 365 209 209 209 209 209 221 221 221 271 271 271 271 172 172 29 29 29 29
 29 266 65 65 65 65 9 9 365 365 365 365 209 209 209 221 221 221 221 221
 390 271 390 172 172 172 172 29 29 29 29 29 65 65 65 65 9 9 365 365
 365 313 313 313 221 221 221 221 221 221 390 390 390 172 172 172 172 29 29 29
 29 29 65 65 65 65 9 9 365 365 313 313 313 313 221 221 221 221 221 221
 390 390 390 374 172 172 172 29 29 29 29 29 65 65 65 65 9 263 263 313
 313 313 313 313 313 221 221 221 262 262 390 390 390 390 374 374 172 119 119 119
 119 119 382 382 382 382 263 263 263 313 313 313 313 313 313 313 127 127 127 127
 390 390 390 390 374 374 119 119 119 119 119 119 382 382 382 382 263 263 263 313
 313 313 313 313 313 127 127 127 127 127 127 215 215 215 215 215 119 119 119 119
 119 119 382 382 382 382 382 263 263 313 313 313 313 313 275 127 127 127 127 127
 127 215 215 215 215 215 119 119 119 119 189 189 189 382 382 382 382 382 382 313
 313 313 313 275 275 275 127 127 127 127 127 215 215 215 215 210 30 30 30 30
 189 189 189 382 382 382 382 382 382 382 48 298 298 298 275 275 275 127 127 267
 267 267 33 33 33 210 195 30 30 30 189 189 189 189 382 382 382 382 382 382
 298 298 298 298 298 298 275 267 267 267 267 267 33 33 33 33 210 30 30 30
 30 189 189 211 211 211 211 211 211 211 298 298 298 298 298 298 362 362 267 267
 267 267 33 33 33 33 210 110 110 110 110 189 211 211 211 211 211 211 211 211
 298 298 298 298 298 362 362 362 362 267 267 267 33 33 33 247 247 188 110 110
 110 189 211 211 211 211 211 211 211 211 132 132 298 298 298 362 362 362 362 362
 267 174 174 33 33 247 188 188 188 110 110 368 211 211 211 211 211 211 211 211
 132 132 298 298 298 362 362 362 362 362 362 174 174 91 91 247 188 188 188 188
 328 200 200 211 211 211 211 211 86 86 86 86 86 86 362 362 362 362 362 362
 226 226 91 91 91 247 247 247 188 188 200 200 200 200 200 211 211 86 86 86
 86 86 86 86 149 362 362 121 121 226 226 226 226 91 91 91 247 247 328 328
 200 200 200 200 200 200 339 236 86 86 86 86 86 149 149 149 253 253 253 226
 226 226 226 226 91 91 247 52 52 52 200 200 200 200 200 200 339 236 236 86
 86 256 256 149 149 149 253 253 253 253 226 226 226 226 226 52 52 52 52 52
 52 200 200 200 200 339 339 236 236 86 256 256 256 149 149 149 253 253 253 253
 226 226 226 226 226 52 52 52 52 52 52 200 200 200 200 339 339 339 236 86
 256 256 256 149 149 149 149 253 253 253 335 226 226 310 310 310 52 52 52 52
 52 52 75 75 75 339 339 339 339 256 256 256 256 201 149 149 149 253 253 335
 335 310 310 310 310 310 310 52 52 52 52 152 75 75 75 339 339 339 339 309
 309 309 55 55 55 149 21 21 21 335 335 310 310 310 310 310 310 52 52 52
 52 43 75 75 75 187 187 309 309 309 309 309 55 55 55 21 21 21 21 335
 335 310 310 310 310 310 310 315 52 52 43 43 122 122 95 95 95 309 309 309
 134 134 55 55 55 55 21 21 21 335 335 310 310 310 310 310 310 315 43 43
 43 43 43 95 95 95 95 134 134 134 134 134 134 55 55 209 386 386 176 271
 271 310 310 310 310 310 310 315 43 43 43 43 43 43 95 95 134 134 134 134
 134 134 209 209 209 209 386 386 386 271 271 271 271 271 310 310 310 43 43 43
 43 43 53 53 53 53 244 134 134 134 134 134 209 209 209 209 386 386 386 386
 271 271 271 271 271 271 359 359 266 266 266 266 266 53 53 53 244 134 134 134
 134 134 209 209 209 209 386 386 386 386 271 271 271 271 271 358 358 266 266 266
 266 266 266 266 53 53 244 9 244 134 365 209 209 209 209 209 209 221 221 271
 271 271 271 271 358 172 29 29 29 266 266 266 266 266 266 9 9 9 9 9
 365 365 209 209 209 221 221 221 221 221 4 4 4 4 172 172 172 29 29 29
 266 266 266 65 65 9 9 9 9 365 365 365 209 209 221 221 221 221 221 221
 4 4 4 172 172 172 172 29 29 29 29 266 65 65 65 9 9 9 9 365
 365 313 313 221 221 221 221 221 221 221 4 390 390 172 172 172 172 172 29 29
 29 29 65 65 65 9 9 9 9 365 313 313 313 313 221 221 221 221 262 262
 390 390 390 172 172 80 172 172 29 29 29 350 350 65 65 9 9 9 9 9
 313 313 313 313 221 221 221 262 262 262 390 390 390 390 80 80 172 119 119 119
 119 350 350 382 382 382 263 263 263 263 313 313 313 292 292 221 221 221 262 262
 390 390 390 69 69 80 172 119 119 119 119 119 382 382 382 382 263 263 263 263
 313 313 313 292 292 127 127 127 127 127 127 157 69 69 69 69 119 119 119 119
 119 119 382 382 382 382 382 263 263 263 313 313 313 39 39 127 127 127 127 127
 127 157 157 210 210 210 210 30 30 30 30 189 382 382 382 382 382 382 382 382
 313 39 39 39 39 39 127 127 127 127 267 157 33 210 210 210 210 30 30 30
 30 189 189 382 382 382 382 382 382 382 298 298 298 298 39 39 39 127 267 267
 267 267 33 33 33 210 210 30 30 30 30 189 189 211 211 211 211 211 382 382
 298 298 298 298 39 39 39 267 267 267 267 267 33 33 33 210 210 30 30 30
 30 30 211 211 211 211 211 211 211 211 298 298 298 298 298 298 362 267 267 267
 267 267 33 33 33 33 210 110 110 110 110 110 211 211 211 211 211 211 211 211
 298 298 298 298 298 298 362 362 267 267 267 267 33 33 33 33 188 188 110 110
 110 110 211 211 211 211 211 211 211 211 298 298 298 298 298 362 362 362 362 267
 267 267 33 33 33 188 188 188 188 110 110 110 211 211 211 211 211 211 211 211
 298 132 298 298 298 106 106 362 362 362 277 91 91 91 91 188 188 188 188 110
 110 110 211 211 211 211 211 211 86 86 86 86 86 338 338 362 362 362 362 277
 277 91 91 91 91 91 188 188 188 304 304 200 200 200 211 211 211 211 86 86
 86 86 86 338 338 338 362 362 277 277 226 226 91 91 91 91 188 304 304 304
 304 200 200 200 200 339 339 339 86 86 86 256 256 256 149 149 149 253 253 226
 226 226 226 91 91 91 52 52 52 52 52 200 200 200 200 339 339 339 339 86
 256 256 256 149 149 149 149 253 253 253 226 226 226 91 91 91 52 52 52 52
 52 200 200 200 200 339 339 339 339 86 256 256 256 149 149 149 149 149 253 253
 335 226 226 310 310 52 52 52 52 52 52 52 200 200 339 339 339 339 339 256
 256 256 256 149 149 149 149 149 253 335 335 335 310 310 310 310 52 52 52 52
 52 52 75 75 75 339 339 339 339 256 256 256 256 55 149 149 149 149 335 335
 335 335 310 310 310 310 310 52 52 52 52 52 75 75 75 339 339 339 339 309
 309 309 55 55 55 55 21 21 335 335 335 310 310 310 310 310 310 52 52 52
 43 43 75 75 75 339 339 309 309 309 309 309 55 55 55 55 21 21 21 335
 335 310 310 310 310 310 310 315 43 43 43 43 43 43 43 95 309 309 309 309
 309 309 55 55 55 55 21 21 21 335 335 310 310 310 310 310 310 315 43 43
 43 43 43 43 43 95 309 309 309 309 134 134 55 55 55 55 386 386 386 386
 310 310 310 310 310 310 310 315 43 43 43 43 43 43 43 43 134 134 134 134
 134 134 134 209 209 386 386 386 386 386 271 271 310 310 310 310 310 43 43 43
 43 43 43 43 43 43 134 134 134 134 134 134 209 209 209 386 386 386 386 386
 271 271 271 271 358 358 358 266 266 266 266 266 266 266 266 266 9 9 134 134
 290 290 209 209 209 209 386 386 386 386 4 4 4 4 358 358 358 266 266 266
 266 266 266 266 266 266 9 9 290 290 290 290 290 209 209 209 221 221 221 4
 4 4 4 4 358 358 358 266 266 266 266 266 266 266 266 9 9 9 9 290
 290 290 290 209 221 221 221 221 221 4 4 4 4 4 172 172 172 29 29 266
 266 266 266 266 266 9 9 9 9 9 9 290 206 221 221 221 221 221 221 221
 4 4 4 4 172 172 172 172 29 29 266 266 266 65 65 9 9 9 9 9
 365 313 206 221 221 221 221 221 221 221 4 4 4 172 172 172 172 172 172 29
 350 350 350 65 65 9 9 9 9 9 313 313 292 292 221 221 221 221 262 262
 4 4 4 172 80 80 172 172 172 350 350 350 350 350 65 9 9 9 9 9
 313 292 292 292 292 221 221 262 262 262 4 69 69 69 80 80 172 172 172 350
 350 350 350 350 382 382 9 9 9 9 313 292 292 292 292 221 221 221 262 262
 69 69 69 69 69 69 172 119 119 119 119 350 350 382 382 382 382 263 263 263
 313 292 292 292 292 292 127 127 127 127 157 157 69 69 69 69 210 30 119 119
 119 350 382 382 382 382 382 382 263 263 313 292 292 39 39 39 127 127 127 127
 157 157 157 210 210 210 210 30 30 30 30 189 382 382 382 382 382 382 382 382
 39 39 39 39 39 39 39 127 127 157 157 157 157 210 210 210 210 30 30 30
 30 189 189 382 382 382 382 382 382 293 298 298 39 39 39 39 39 127 267 267
 267 157 33 33 210 210 210 30 30 30 30 189 189 211 211 211 211 211 211 293
 293 298 39 39 39 39 39 267 267 267 267 267 33 33 210 210 210 210 30 30
 30 30 211 211 211 211 211 211 293 293 298 298 298 298 39 39 39 267 267 267
 267 267 33 33 33 210 210 210 110 110 110 110 211 211 211 211 211 211 211 293
 298 298 298 298 298 39 106 267 267 267 267 267 33 33 33 33 188 188 110 110
 110 110 211 211 211 211 211 211 211 211 298 298 298 298 298 106 106 106 267 267
 267 267 33 33 33 33 188 188 188 110 110 257 211 211 211 211 211 211 211 163
 163 298 298 298 298 106 106 106 277 277 277 277 91 91 91 91 188 188 188 304
 304 304 211 211 211 211 211 211 163 163 163 86 338 338 338 106 106 106 277 277
 277 277 91 91 91 91 188 188 304 304 304 304 164 164 211 211 211 163 163 163
 86 86 338 338 338 338 106 277 277 277 277 277 91 91 91 91 304 304 304 304
 304 304 164 164 164 339 339 339 339 163 86 256 256 338 338 338 149 149 277 277
 277 226 226 91 91 91 304 304 304 304 304 304 164 164 164 339 339 339 339 339
 256 256 256 256 149 149 149 149 253 277 277 226 226 91 91 89 89 89 89 52
 304 304 164 164 164 339 339 339 339 339 256 256 256 149 149 149 149 149 253 253
 335 226 260 260 260 89 89 89 89 52 52 52 164 164 339 339 339 339 339 339
 256 256 256 256 149 149 149 149 253 335 335 260 260 260 260 260 89 89 89 52
 52 52 75 75 339 339 339 339 339 339 256 256 256 256 149 149 149 149 335 335
 335 310 260 260 260 310 89 89 52 52 52 52 75 75 75 339 339 339 339 339
 309 309 55 55 55 149 149 243 335 335 335 310 310 310 310 310 315 315 315 43
 43 43 43 75 75 339 339 339 309 309 309 309 55 55 55 55 243 21 335 335
 335 310 310 310 310 310 315 315 315 43 43 43 43 43 43 43 339 309 309 309
 309 309 55 55 55 55 386 386 8 335 385 385 310 310 310 310 315 315 315 43
 43 43 43 43 43 43 309 309 309 309 134 134 55 55 55 386 386 386 386 385
 385 385 385 310 310 310 315 315 315 43 43 43 43 43 43 43 134 134 309 309
 134 134 134 55 212 386 386 386 386 386 385 385 385 310 310 310 315 315 43 43
 43 43 43 43 43 43 43 134 134 134 290 290 290 212 212 212 386 386 386 386
 385 385 385 385 358 358 358 315 43 43 43 43 43 43 43 81 81 290 290 290
 290 290 290 212 212 212 386 386 386 386 4 4 4 4 358 358 358 155 155 266
 266 266 266 266 81 81 81 290 290 290 290 290 290 212 212 212 212 221 221 4
 4 4 4 4 358 358 358 155 155 266 266 266 266 266 81 81 81 9 290 290
 290 290 206 206 221 221 221 221 221 4 4 4 4 4 358 358 358 155 155 266
 266 266 266 266 81 81 9 9 9 290 290 290 206 206 221 221 221 221 221 4
 4 4 4 4 172 172 172 172 172 266 266 266 266 266 65 9 9 9 9 9
 290 290 206 206 221 221 221 221 221 221 4 4 4 4 172 172 172 172 172 350
 350 350 350 350 65 9 9 9 9 9 292 292 292 292 221 221 221 221 221 221
 4 4 4 69 172 172 172 172 172 350 350 350 350 350 350 9 9 9 9 9
 292 292 292 292 292 221 221 221 262 221 4 69 69 69 69 69 172 172 184 184
 350 350 350 350 382 382 9 9 9 9 292 292 292 292 292 292 221 221 221 221
 69 69 69 69 69 69 69 184 184 184 184 350 350 350 239 382 382 263 263 96
 292 292 292 292 292 292 221 221 221 221 157 157 69 69 69 69 299 299 184 184
 184 239 239 239 239 382 307 307 307 96 292 292 292 292 39 39 39 127 127 157
 157 157 157 210 210 210 299 299 30 30 30 239 239 239 239 382 307 307 307 293
 293 39 39 39 39 39 39 45 267 157 157 157 157 210 210 210 210 299 30 30
 30 30 239 239 239 211 211 307 293 293 293 39 39 39 39 39 39 45 267 267
 267 157 157 210 210 210 210 210 30 30 30 30 239 211 211 211 211 211 293 293
 293 39 39 39 39 39 45 45 45 267 267 267 33 210 210 210 210 210 30 30
 30 30 211 211 211 211 211 211 293 293 298 298 39 39 39 39 45 45 267 267
 267 267 33 33 210 210 210 210 110 110 110 257 211 211 211 211 211 211 211 293
 165 298 298 298 39 39 106 267 267 267 267 182 182 182 182 182 188 188 110 110
 257 257 211 211 211 211 211 211 211 165 165 165 298 298 298 106 106 106 277 277
 277 182 182 182 182 182 188 188 188 257 257 257 257 211 211 211 211 211 165 165
 163 165 165 338 106 106 106 106 277 277 277 277 182 182 182 182 188 188 304 304
 304 304 164 211 211 211 211 211 163 163 163 165 338 338 338 106 106 277 277 277
 277 277 91 91 91 91 304 304 304 304 304 304 164 164 164 25 25 25 163 163
 163 163 338 338 338 338 106 277 277 277 277 277 252 91 91 91 304 304 304 304
 304 304 164 164 164 339 339 339 163 163 86 256 294 338 338 338 149 303 277 277
 277 277 252 252 252 252 304 304 304 304 304 304 164 164 164 339 339 339 339 339
 339 256 256 338 338 149 149 303 303 277 277 277 252 252 252 89 89 89 304 304
 304 304 164 164 164 339 339 339 339 339 339 256 256 149 149 149 149 149 149 277
 277 260 260 260 260 89 89 89 89 304 304 304 164 164 339 339 339 339 339 339
 256 256 256 256 149 149 149 149 243 243 335 260 260 260 260 260 89 89 89 89
 52 52 75 75 339 339 339 339 339 339 256 256 256 12 149 149 243 243 243 243
 335 260 260 260 260 260 89 89 89 89 52 43 75 75 339 339 339 339 339 339
 309 256 55 55 55 243 243 243 243 243 335 310 260 260 260 310 315 315 315 315
 43 43 43 43 43 339 339 339 339 309 309 309 55 55 55 243 243 243 243 243
 385 385 310 310 310 315 315 315 315 315 43 43 43 43 43 43 339 309 309 309
 309 295 55 55 55 243 243 8 8 8 385 385 385 310 310 315 315 315 315 43
 43 43 43 43 43 43 339 309 309 309 254 295 376 376 376 212 8 8 8 8
 385 385 385 385 310 315 315 315 315 43 43 43 43 43 43 43 254 254 254 254
 290 290 376 212 212 212 386 8 8 8 385 385 385 385 310 101 101 315 315 43
 43 43 43 43 43 43 254 254 254 254 290 290 290 212 212 212 212 386 386 386
 385 385 385 385 358 358 101 101 101 43 43 43 43 43 43 81 81 290 290 290
 290 290 290 212 212 212 212 386 270 270 270 4 4 4 358 358 358 155 155 155
 266 266 266 43 81 81 81 290 290 290 290 290 290 212 212 212 212 212 270 270
 4 4 4 4 358 358 358 155 155 155 266 266 266 266 81 81 81 290 290 290
 290 290 206 206 212 212 221 221 221 4 4 4 4 4 358 358 358 155 155 155
 266 266 266 266 81 81 81 9 290 290 290 290 206 206 206 221 221 221 221 4
 4 4 4 4 172 172 172 172 172 350 350 350 308 308 81 81 9 9 9 290
 290 290 206 206 206 221 221 221 221 4 4 4 4 4 172 172 172 172 172 350
 350 350 350 350 302 302 9 9 9 9 96 292 292 292 292 221 221 221 221 4
 4 4 4 69 172 172 172 172 172 350 350 350 350 350 302 302 302 9 9 9
 96 292 292 292 292 292 221 221 221 221 4 69 69 69 69 69 172 172 184 184
 350 350 350 350 302 302 302 302 96 96 96 292 292 292 292 292 221 221 221 221
 69 69 69 69 69 69 69 184 184 184 184 350 350 239 239 239 302 96 96 96
 96 292 292 292 292 292 221 221 221 102 69 69 69 69 69 69 299 299 184 184
 184 239 239 239 239 239 307 307 307 96 96 292 292 292 39 39 39 45 45 157
 157 157 157 69 210 210 299 299 299 30 239 239 239 239 239 239 307 307 307 293
 293 39 39 39 39 39 39 45 45 45 157 157 157 210 210 210 210 299 30 30
 30 239 239 239 239 239 307 307 293 293 293 39 39 39 39 39 39 45 45 45
 157 157 210 210 210 210 210 210 30 30 30 239 239 239 211 211 211 293 293 293
 293 39 39 39 39 39 45 45 45 45 45 112 33 210 210 210 210 210 30 30
 257 257 239 239 211 211 211 211 293 293 165 165 39 39 39 153 153 45 45 45
 267 182 182 182 182 210 210 210 257 257 257 257 257 257 211 211 211 211 165 165
 165 165 165 39 39 153 153 45 47 47 47 182 182 182 182 182 210 210 257 257
 257 257 257 257 211 211 211 211 165 165 165 165 165 39 39 106 106 106 47 47
 47 182 182 182 182 182 182 188 257 257 257 257 257 257 211 211 211 165 165 165
 165 165 165 165 106 106 106 106 277 277 277 182 182 182 182 182 182 304 304 304
 257 257 257 257 25 25 25 165 165 165 165 165 165 294 294 106 106 277 277 277
 277 277 182 182 182 182 304 304 304 304 304 304 304 164 25 25 25 25 163 163
 165 294 294 294 294 338 303 303 277 277 277 277 252 252 252 252 304 304 304 304
 304 304 164 164 25 25 25 339 339 163 294 294 294 294 294 294 303 303 303 277
 277 252 252 252 252 252 304 304 304 304 304 304 164 164 164 339 339 339 339 339
 339 294 294 294 294 294 303 303 303 277 277 252 252 252 252 252 89 89 304 304
 304 304 164 164 164 339 339 339 339 339 339 256 294 294 294 149 303 303 303 303
 277 252 252 260 252 89 89 89 89 304 304 304 342 342 342 339 339 339 339 339
 339 256 12 12 12 149 243 243 243 243 243 260 260 260 260 260 89 89 89 89
 304 50 50 342 342 339 339 339 339 339 339 256 12 12 12 243 243 243 243 243
 243 260 260 260 260 260 89 89 89 89 50 50 50 342 342 339 339 339 339 339
 309 12 12 12 12 243 243 243 243 243 243 310 260 260 260 315 315 315 315 315