# vtk DataFile Version 2.0
Data set from IO Version 6.4.197.9a0dee2
ASCII

DATASET RECTILINEAR_GRID
DIMENSIONS 31 31 31
X_COORDINATES 31 float
-2.566667 2.566667 7.700000 12.833333 17.966667 23.099998 28.233334 33.366669 38.500000 43.633331 48.766666 53.900002 59.033333 64.166664 69.300003 74.433334 79.566666 84.699997 89.833328 94.966667 100.099998 
105.233330 110.366669 115.500000 120.633331 125.766663 130.899994 136.033325 141.166672 146.300003 151.433334 
Y_COORDINATES 31 float
-2.566667 2.566667 7.700000 12.833333 17.966667 23.099998 28.233334 33.366669 38.500000 43.633331 48.766666 53.900002 59.033333 64.166664 69.300003 74.433334 79.566666 84.699997 89.833328 94.966667 100.099998 
105.233330 110.366669 115.500000 120.633331 125.766663 130.899994 136.033325 141.166672 146.300003 151.433334 
Z_COORDINATES 31 float
-2.566667 2.566667 7.700000 12.833333 17.966667 23.099998 28.233334 33.366669 38.500000 43.633331 48.766666 53.900002 59.033333 64.166664 69.300003 74.433334 79.566666 84.699997 89.833328 94.966667 100.099998 
105.233330 110.366669 115.500000 120.633331 125.766663 130.899994 136.033325 141.166672 146.300003 151.433334 
CELL_DATA 27000
SCALARS FeatureIds int 1
LOOKUP_TABLE default
 348 59 59 59 59 59 59 100 100 100 355 355 355 304 304 386 386 386 206 206
 206 206 81 81 32 32 32 32 348 348 348 59 59 59 59 59 59 100 100 100
 355 355 355 304 304 386 386 386 336 336 336 336 81 81 81 81 32 348 348 348
 348 348 59 59 59 270 270 100 100 100 355 355 355 304 304 386 386 386 336 336
 336 336 81 81 81 81 81 348 348 348 348 348 59 270 270 270 270 270 77 355
 355 355 355 304 367 367 367 386 336 336 336 336 81 81 81 81 81 348 348 348
 72 72 270 270 270 270 270 270 77 77 77 355 355 367 367 367 367 202 202 202
 202 202 202 399 399 399 399 72 72 72 72 72 345 270 270 270 270 270 77 77
 77 77 227 367 367 367 367 202 202 202 202 202 202 399 399 399 399 72 72 72
 72 345 345 396 396 270 152 152 152 77 77 77 227 227 227 367 367 202 202 202
 202 202 202 399 399 399 399 72 72 72 72 345 345 396 396 396 152 152 152 152
 77 227 227 227 227 367 202 202 202 202 202 202 202 399 399 399 72 72 72 72
 256 256 256 387 113 113 152 152 152 152 152 227 227 227 227 367 202 202 202 202
 202 202 202 399 399 399 72 72 72 72 256 256 256 387 113 113 113 152 152 382
 382 227 227 227 227 367 202 202 202 202 202 202 202 280 280 280 280 72 72 256
 256 256 264 264 264 113 113 382 382 382 382 382 362 362 362 362 202 202 202 202
 202 202 202 280 280 280 280 280 256 256 256 83 264 264 264 264 113 382 382 382
 382 382 362 362 362 362 340 340 202 202 202 202 280 280 280 280 280 280 256 105
 105 83 264 264 264 60 60 382 382 382 382 61 61 61 61 61 340 340 340 233
 165 165 165 280 280 280 280 280 105 105 132 132 264 264 60 60 60 70 70 70
 70 61 61 61 61 61 233 340 233 233 165 165 165 165 280 280 280 280 132 105
 132 212 212 212 212 60 60 70 70 70 70 361 61 61 61 233 233 233 233 233
 165 165 165 50 50 280 280 132 132 132 132 212 212 212 212 212 243 70 70 70
 70 361 361 61 233 233 233 233 233 233 165 165 50 50 50 50 280 132 132 132
 153 153 212 212 212 243 243 243 70 70 70 361 361 61 233 233 233 233 233 233
 233 165 50 50 50 50 179 179 179 179 153 153 153 153 121 243 243 243 243 70
 70 70 361 97 233 233 233 233 233 99 99 333 333 50 50 50 179 179 179 179
 153 153 153 121 121 243 243 243 171 171 171 171 97 97 97 97 233 233 158 99
 333 333 333 333 339 339 179 179 179 179 153 153 153 121 89 89 89 243 171 171
 171 171 97 97 97 97 97 158 158 158 333 333 333 333 339 339 339 179 179 179
 153 89 89 89 89 89 89 89 171 171 171 171 97 97 97 337 337 158 158 158
 333 333 333 333 339 339 339 339 179 179 28 28 89 89 89 89 89 89 171 171
 171 171 97 97 337 337 337 158 158 158 333 292 292 292 339 339 339 339 21 21
 28 28 28 89 89 89 89 89 359 359 171 171 278 278 337 337 337 337 158 158
 292 292 292 292 292 339 21 21 21 21 123 123 123 89 89 89 359 359 359 359
 359 278 278 278 278 337 363 363 363 363 292 292 292 292 292 292 21 21 21 21
 260 380 380 380 380 359 359 359 359 359 359 359 278 278 278 363 363 363 363 363
 292 292 292 292 292 378 378 21 21 21 260 260 380 380 380 359 359 359 359 359
 359 359 278 278 278 363 363 363 363 363 292 292 292 292 292 378 378 378 260 260
 260 260 380 380 380 359 359 359 359 359 359 199 199 55 363 363 363 363 363 102
 102 102 292 292 378 378 378 378 260 260 260 260 59 59 59 359 359 359 359 359
 199 199 199 199 55 363 363 363 206 206 102 102 102 102 378 378 378 378 260 260
 260 59 59 59 59 59 359 359 359 359 199 199 199 55 55 55 363 206 206 206
 102 102 102 102 378 32 378 260 260 260 260 59 59 59 59 59 59 359 100 100
 100 355 355 55 55 55 206 206 206 206 206 102 102 102 32 32 32 260 260 260
 348 59 59 59 59 59 59 100 100 100 355 355 355 304 55 386 386 386 206 206
 206 206 115 115 115 32 32 348 348 348 348 348 59 59 59 59 120 100 100 100
 355 355 355 304 304 386 386 386 386 206 206 206 115 115 115 115 115 348 348 348
 348 348 59 59 59 176 270 120 100 100 355 355 355 304 91 386 386 386 386 336
 336 146 115 115 115 115 115 348 348 348 348 348 176 176 176 176 270 270 77 77
 355 355 355 304 367 367 386 386 386 202 202 146 146 81 184 184 184 72 348 348
 72 72 176 176 176 176 270 270 77 77 77 77 355 367 367 367 202 202 202 202
 202 202 146 184 184 184 184 72 72 72 72 72 345 176 176 176 270 270 77 77
 77 77 227 227 367 367 202 202 202 202 202 202 202 399 399 399 184 72 72 72
 72 345 345 345 176 176 152 152 77 77 77 227 227 227 227 227 202 202 202 202
 202 202 202 399 399 399 72 72 72 72 345 345 345 396 239 239 152 152 152 152
 77 227 227 227 227 227 202 202 202 202 202 202 202 399 399 399 72 72 72 72
 72 345 345 387 239 239 239 152 152 152 152 227 227 227 227 227 202 202 202 202
 202 202 202 399 399 399 72 72 72 72 256 256 387 387 239 239 239 239 152 382
 382 227 227 227 227 227 202 202 202 202 202 202 202 202 280 280 72 72 72 72
 256 83 264 264 264 239 239 239 382 382 382 382 362 362 362 362 202 202 202 202
 202 202 202 280 280 280 280 72 72 256 83 83 264 264 264 264 239 382 382 382
 382 382 362 362 362 362 340 340 202 202 202 202 165 280 280 280 280 280 105 105
 105 83 264 264 264 264 60 25 382 382 382 61 362 362 362 61 340 340 340 340
 165 165 165 280 280 280 280 280 105 105 132 212 212 264 212 60 60 25 70 70
 70 70 61 61 61 233 340 340 340 233 165 165 165 165 280 280 280 280 105 105
 217 212 212 212 212 212 60 70 70 70 70 70 61 61 61 233 233 340 233 233
 165 165 165 165 50 280 280 132 132 132 217 212 212 212 212 212 243 70 70 70
 70 70 361 61 233 233 233 233 233 233 165 165 165 50 50 50 36 36 36 217
 153 153 212 212 212 243 243 243 70 70 70 70 15 15 15 233 233 233 233 233
 165 165 197 197 197 197 36 36 36 179 153 153 153 212 212 243 243 243 243 70
 70 70 15 15 15 233 233 233 233 233 333 333 197 197 197 197 36 36 179 179
 153 153 153 121 121 243 243 243 243 171 171 171 97 97 97 97 233 158 158 158
 333 333 333 197 197 197 179 179 179 179 153 153 153 89 89 89 243 243 171 171
 171 171 97 97 97 97 97 158 158 158 333 333 333 333 333 339 339 179 179 179
 153 89 89 89 89 89 89 89 171 171 171 97 97 97 97 97 337 158 158 158
 333 333 333 333 339 339 339 339 21 325 123 123 123 89 89 89 89 89 226 226
 226 97 97 97 97 97 337 158 158 158 333 333 333 333 339 339 21 21 21 21
 123 123 123 123 89 89 89 359 359 226 226 226 97 97 97 337 337 337 158 158
 292 292 292 292 292 21 21 21 21 21 123 123 123 123 123 359 359 359 359 359
 359 278 278 278 278 337 363 363 363 292 292 292 292 292 292 21 21 21 21 21
 380 380 123 380 380 359 359 359 359 359 359 359 278 278 278 363 363 363 363 363
 292 292 292 292 292 378 21 21 21 21 260 380 380 380 380 359 359 359 359 359
 359 359 199 55 55 363 363 363 363 363 102 292 292 292 378 378 378 378 378 260
 260 380 380 380 380 359 359 359 359 359 199 199 199 55 55 55 363 363 363 102
 102 102 102 292 378 378 378 378 260 260 260 380 380 380 380 359 359 359 359 359
 199 199 199 55 55 55 363 363 206 206 102 102 102 102 378 378 378 378 260 260
 260 59 59 59 59 59 359 359 359 359 199 199 55 55 55 55 55 206 206 206
 102 102 102 102 378 378 378 378 260 260 260 59 59 59 59 59 359 359 100 100
 100 355 55 55 55 55 55 206 206 206 206 102 102 102 32 32 32 378 260 260
 348 348 59 59 110 110 110 120 120 223 223 223 91 91 55 55 386 386 206 206
 206 206 115 115 115 115 115 115 348 348 348 348 110 110 110 110 120 120 120 223
 223 223 91 91 91 386 386 386 386 206 206 206 115 115 115 115 115 122 348 348
 348 348 348 176 176 176 120 120 120 223 223 223 91 91 91 91 386 386 386 289
 146 146 115 115 115 115 115 122 122 348 348 348 176 176 176 176 176 176 77 77
 77 77 91 91 91 175 386 386 289 289 146 146 146 184 184 184 184 122 122 122
 72 72 176 176 176 176 176 176 77 77 77 77 91 175 175 175 202 202 202 202
 146 146 146 184 184 184 184 184 72 72 72 72 176 176 176 176 176 176 77 77
 77 77 227 227 227 202 202 202 202 202 202 202 202 184 184 184 184 184 72 72
 72 345 345 176 176 176 176 176 77 77 77 77 227 227 227 227 202 202 202 202
 202 202 202 184 184 184 184 72 72 72 72 345 345 239 239 239 239 239 152 152
 77 227 227 227 227 227 202 202 202 202 202 202 202 184 184 184 72 72 72 72
 72 345 345 239 239 239 239 239 239 152 77 227 227 227 227 227 202 202 202 202
 202 202 202 202 184 184 72 72 72 72 72 256 387 387 239 239 239 239 239 347
 347 227 227 227 227 20 202 202 202 202 202 202 202 202 107 72 72 72 72 72
 256 83 264 264 239 239 239 239 347 347 347 347 362 362 362 20 20 202 202 202
 202 202 107 107 107 107 72 72 72 72 83 83 264 264 264 239 239 239 347 347
 347 347 362 362 362 20 20 340 202 202 202 107 107 107 107 107 280 72 105 105
 83 83 264 264 264 264 25 25 347 347 347 347 362 362 362 20 340 340 340 340
 165 165 165 107 107 107 280 73 73 73 73 217 212 212 212 212 25 25 25 70
 70 70 61 61 61 20 340 340 340 233 165 165 165 165 107 107 280 73 73 73
 217 217 212 212 212 212 25 25 70 70 70 70 61 61 61 233 233 340 233 233
 165 165 165 165 197 197 36 36 73 73 217 217 212 212 212 212 243 70 70 70
 70 70 15 15 15 233 233 233 233 233 165 165 165 197 197 197 36 36 36 217
 217 217 217 212 212 243 243 243 70 70 70 70 15 15 15 15 233 233 233 233
 165 197 197 197 197 197 36 36 36 36 217 217 217 212 212 243 243 243 243 70
 70 15 15 15 15 15 233 233 233 233 333 197 197 197 197 197 36 36 36 36
 153 153 153 212 212 243 243 243 243 243 171 15 15 15 15 97 97 158 158 158
 333 333 197 197 197 197 325 325 36 36 153 153 153 89 89 243 243 243 243 171
 171 97 97 97 97 97 97 158 158 158 333 333 333 197 197 371 325 325 325 325
 384 384 123 89 89 89 89 226 226 226 226 97 97 97 97 97 97 158 158 158
 333 333 333 197 371 371 325 325 325 325 123 123 123 123 89 89 89 226 226 226
 226 226 97 97 97 97 337 158 158 158 333 333 333 371 371 371 325 325 325 325
 123 123 123 123 123 89 89 359 226 226 226 226 97 97 97 97 337 398 398 398
 292 292 292 194 194 371 21 21 21 21 123 123 123 123 123 359 359 359 359 226
 226 226 257 257 257 257 257 398 398 398 292 292 194 194 194 194 21 21 21 21
 380 380 123 380 380 359 359 359 359 359 359 359 257 257 257 257 257 398 398 398
 292 292 292 194 194 378 378 21 21 21 380 380 380 380 380 359 359 359 359 359
 359 359 257 257 257 257 363 398 398 102 102 102 292 194 378 378 378 378 378 260
 372 380 380 380 380 359 359 359 359 359 388 388 388 55 55 55 363 363 363 102
 102 102 102 378 378 378 378 378 378 372 372 380 380 380 380 359 359 359 359 359
 388 388 55 55 55 55 55 206 206 206 102 102 102 102 378 378 378 378 372 372
 372 380 59 59 59 359 359 359 359 359 388 388 55 55 55 55 55 206 206 206
 206 102 102 102 378 378 378 378 372 372 372 59 59 59 59 110 359 359 359 100
 388 388 55 55 55 55 55 206 206 206 206 102 102 115 115 115 32 378 372 372
 348 348 110 110 110 110 110 120 120 223 223 223 91 91 91 91 78 78 78 206
 206 206 115 115 115 115 115 115 348 348 348 348 110 110 110 110 120 120 120 223
 223 223 91 91 91 91 78 78 78 206 206 115 115 115 115 115 115 122 122 348
 348 348 110 110 110 110 120 120 120 223 223 223 91 91 91 91 78 78 289 289
 146 146 146 115 115 115 115 122 122 122 79 79 176 176 176 176 176 176 77 223
 223 223 91 91 175 175 175 175 289 289 146 146 146 115 184 184 184 122 122 122
 79 79 176 176 176 176 176 176 77 77 77 77 175 175 175 175 175 175 289 289
 146 146 146 184 184 184 184 184 72 72 72 72 176 176 176 176 176 176 77 77
 77 77 175 175 175 175 175 175 202 202 263 263 263 184 184 184 184 184 72 72
 72 345 345 176 176 176 176 176 77 77 77 251 227 175 175 175 175 202 202 202
 202 263 263 184 184 184 184 184 72 72 72 345 345 239 239 239 239 239 239 239
 251 251 227 227 175 175 202 202 202 202 202 202 263 184 184 184 184 72 72 72
 72 345 239 239 239 239 239 239 239 239 251 251 227 227 20 20 202 202 202 202
 202 202 14 14 14 184 72 72 72 72 72 101 239 239 239 239 239 239 239 239
 347 347 20 20 20 20 20 202 202 202 202 202 14 14 14 14 72 72 72 72
 101 101 264 239 239 239 239 239 347 347 347 347 20 20 20 20 20 20 202 202
 202 202 107 107 107 107 107 72 72 72 101 101 264 264 239 239 239 347 347 347
 347 347 20 20 20 20 20 20 202 202 202 107 107 107 107 107 107 72 73 73
 73 101 264 264 239 239 25 25 347 347 347 347 362 20 20 20 20 20 340 340
 165 107 107 107 107 107 107 73 73 73 73 217 217 212 212 239 25 25 25 25
 70 70 70 20 20 20 20 20 340 238 165 165 107 107 107 107 344 73 73 73
 217 217 217 212 212 212 25 25 25 70 70 70 70 15 20 20 20 340 238 238
 165 165 165 267 267 267 36 73 73 73 217 217 217 212 212 212 25 25 70 70
 70 70 15 15 15 15 233 238 238 238 238 165 197 197 197 197 36 36 36 217
 217 217 217 217 212 9 9 9 70 70 70 15 15 15 15 15 233 238 238 238
 238 197 197 197 197 197 36 36 36 36 217 217 217 217 212 9 9 9 9 9
 70 15 15 15 15 15 53 53 53 53 197 197 197 197 197 197 36 36 36 36
 217 217 217 68 9 9 9 9 9 9 171 15 15 15 15 15 53 53 53 53
 333 197 197 197 197 197 325 325 325 325 384 384 86 86 9 9 9 9 226 226
 226 15 15 97 97 97 53 53 53 53 333 333 197 197 197 371 325 325 325 325
 384 384 384 86 89 89 9 226 226 226 226 226 97 97 97 97 53 53 53 53
 333 333 333 371 371 371 325 325 325 325 384 384 384 123 89 89 89 226 226 226
 226 226 97 97 97 97 53 398 398 398 185 333 371 371 371 371 371 325 325 325
 316 316 123 123 123 89 226 226 226 226 226 226 257 257 257 257 257 398 398 398
 398 194 194 194 371 371 371 325 325 325 316 316 123 123 380 380 359 359 359 226
 226 226 257 257 257 257 257 398 398 398 398 194 194 194 194 194 371 21 21 21
 380 380 380 380 380 380 359 359 359 359 226 114 257 257 257 257 257 398 398 398
 398 194 194 194 194 194 378 21 21 316 380 380 380 380 380 380 359 359 359 359
 359 114 257 257 257 257 257 398 398 240 240 240 194 194 194 378 378 378 378 372
 372 380 380 380 380 380 359 359 359 359 388 388 388 55 55 55 55 398 398 240
 240 240 240 240 378 378 378 378 372 372 372 380 380 380 380 380 359 359 359 359
 388 388 388 55 55 55 55 206 206 240 240 240 240 240 378 378 378 378 372 372
 372 380 380 110 110 110 110 359 359 388 388 388 55 55 55 55 55 206 206 206
 240 240 240 240 378 139 378 378 372 372 372 110 110 110 110 110 110 110 110 223
 223 388 55 55 55 55 55 206 206 206 206 240 240 115 115 115 378 378 372 372
 79 110 110 110 110 110 120 120 120 223 223 223 91 91 91 91 78 78 78 78
 240 240 115 115 115 115 115 115 122 122 79 79 110 110 110 110 120 120 120 223
 223 223 91 91 91 91 78 78 78 78 240 115 115 115 115 115 115 122 122 122
 79 79 110 110 110 110 120 120 120 223 223 223 91 91 91 91 78 78 78 289
 146 146 146 115 115 115 115 122 122 122 79 79 110 110 176 176 176 120 120 223
 223 223 91 175 175 175 175 175 289 289 146 146 146 263 184 184 184 122 122 122
 79 79 176 176 176 176 176 176 166 166 223 223 175 175 175 175 175 175 175 263
 263 263 263 263 184 184 184 184 79 79 129 129 129 176 176 176 176 176 176 166
 251 251 175 175 175 175 175 175 175 263 263 263 263 263 184 184 184 184 79 79
 129 129 129 176 176 176 176 176 176 251 251 251 251 175 175 175 175 175 202 263
 263 263 263 263 184 5 5 184 72 129 129 129 129 239 239 239 239 239 239 251
 251 251 251 175 175 175 175 202 202 202 263 263 263 14 184 5 5 72 72 129
 129 129 129 239 239 239 239 239 239 154 251 251 251 20 20 20 20 311 202 202
 202 14 14 14 14 14 72 72 72 129 101 101 239 239 239 239 239 239 239 154
 154 251 20 20 20 20 20 311 311 202 202 14 14 14 14 14 14 72 72 72
 101 101 101 239 239 239 239 239 347 347 347 347 20 20 20 20 20 20 311 202
 202 107 107 107 107 107 107 104 104 104 101 101 101 239 239 239 239 239 347 347
 347 347 20 20 20 20 20 20 20 202 107 107 107 107 107 107 107 104 104 104
 101 101 101 239 239 239 25 25 347 347 347 347 20 20 20 20 20 20 20 20
 107 107 107 107 107 107 107 344 104 73 73 217 217 217 239 25 25 25 25 25
 70 70 20 20 20 20 20 20 20 238 238 107 107 107 107 107 344 344 344 73
 217 217 217 217 212 25 25 25 25 25 70 70 203 203 203 20 20 20 238 238
 238 267 267 267 267 267 344 344 220 73 217 217 217 217 212 9 9 25 9 70
 70 70 203 203 203 20 20 238 238 238 238 238 267 267 267 267 36 36 220 220
 217 217 217 217 212 9 9 9 9 9 9 15 15 15 15 15 15 238 238 238
 238 197 197 197 197 197 36 36 36 220 217 217 217 217 9 9 9 9 9 9
 9 15 15 15 15 15 53 53 53 238 238 197 197 197 197 197 325 36 36 220
 217 217 86 68 9 9 9 9 9 9 9 15 15 15 15 53 53 53 53 53
 53 197 197 197 197 197 325 325 325 325 384 384 86 86 86 9 9 9 9 226
 226 15 15 15 15 53 53 53 53 53 333 197 197 197 371 371 325 325 325 325
 384 384 384 86 86 9 9 226 226 226 226 226 97 97 97 53 53 53 53 53
 185 185 185 371 371 371 325 325 325 325 384 384 384 86 86 9 9 226 226 226
 226 226 97 97 97 53 53 53 53 398 185 185 185 371 371 371 371 325 325 325
 316 316 316 316 123 380 226 226 226 226 226 226 257 257 257 257 257 398 398 398
 185 185 185 371 371 371 371 371 325 316 316 316 316 380 380 380 359 359 226 226
 226 114 257 257 257 257 257 398 398 398 398 194 194 194 194 371 371 371 21 316
 316 316 380 380 380 380 359 359 359 359 114 114 114 257 257 257 257 398 398 398
 398 194 194 194 194 194 371 371 316 316 380 380 380 380 380 380 359 359 359 359
 114 114 114 257 257 257 257 398 398 240 240 240 240 194 194 139 378 378 372 316
 372 380 380 380 380 380 359 359 359 359 114 114 114 55 55 55 257 398 240 240
 240 240 240 240 139 139 139 139 372 372 372 380 380 380 380 380 359 359 359 388
 388 388 388 55 55 55 55 240 240 240 240 240 240 240 139 139 139 139 372 372
 372 380 110 110 110 110 110 110 110 388 388 388 55 55 55 55 55 240 240 240
 240 240 240 240 139 139 139 139 372 372 372 110 110 110 110 110 110 110 110 223
 223 388 55 55 55 55 55 78 206 240 240 240 240 115 115 115 139 274 372 372
 79 110 110 110 110 110 110 120 120 223 223 332 332 91 125 125 78 78 78 78
 240 240 240 274 274 274 274 274 274 79 79 79 110 110 110 110 120 120 120 223
 223 332 332 125 125 125 78 78 78 78 240 240 274 115 274 274 274 79 79 79
 79 79 110 110 110 110 120 120 120 223 223 332 332 125 125 125 78 78 78 78
 263 263 263 115 115 274 79 79 79 79 79 79 79 293 293 293 293 120 166 166
 166 332 332 175 175 175 175 175 175 263 263 263 263 263 184 184 79 79 79 79
 79 79 79 176 176 176 176 166 166 166 166 166 175 175 175 175 175 175 175 263
 263 263 263 263 184 184 184 79 79 79 129 129 129 129 176 176 176 166 166 166
 166 166 175 175 175 175 175 175 263 263 263 263 263 263 184 184 184 79 79 79
 129 129 129 129 176 176 176 166 166 166 251 251 251 175 175 175 175 175 263 263
 263 263 263 263 184 5 5 184 79 129 129 129 129 129 239 239 239 239 154 154
 251 251 251 175 175 175 175 175 263 263 263 263 263 14 14 5 5 5 129 129
 129 129 129 129 239 239 239 239 154 154 251 251 251 20 20 20 20 311 311 118
 118 14 14 14 14 14 327 327 129 129 129 129 129 239 239 239 239 239 154 154
 154 154 20 20 20 20 20 311 311 118 118 14 14 14 14 14 327 327 104 129
 101 101 101 239 239 239 239 239 154 154 154 154 20 20 20 20 20 311 311 118
 118 14 14 14 14 107 327 104 104 104 101 101 101 101 239 239 239 239 347 347
 347 347 20 20 20 20 20 20 20 118 107 107 107 107 107 107 107 104 104 104
 101 101 101 101 239 239 239 25 347 347 347 231 20 20 20 20 20 20 20 20
 107 107 107 107 107 107 344 344 104 104 101 101 101 101 239 25 25 25 25 25
 231 231 20 20 20 20 20 20 20 238 238 238 267 107 107 107 344 344 344 104
 217 217 217 217 212 275 25 25 25 25 70 203 203 203 203 20 20 20 238 238
 238 238 267 267 267 267 344 344 220 220 220 217 217 217 9 9 9 9 9 9
 9 203 203 203 203 20 20 238 238 238 238 267 267 267 267 267 344 220 220 220
 220 217 217 217 9 9 9 9 9 9 9 15 203 203 203 15 238 238 238 238
 238 267 267 267 267 267 36 220 220 220 220 217 217 9 9 9 9 9 9 9
 9 15 15 15 15 53 53 53 53 238 238 197 197 197 197 197 325 325 220 220
 220 86 86 68 68 9 9 9 9 9 9 15 15 15 15 53 53 53 53 53
 53 197 197 197 371 371 325 325 325 325 384 384 86 68 86 9 9 9 9 9
 9 15 15 15 15 53 53 53 53 53 53 185 197 371 371 371 325 325 325 325
 384 384 384 68 86 9 9 9 226 226 226 226 302 302 53 53 53 53 53 53
 185 185 185 371 371 371 371 325 325 325 384 384 384 68 86 9 9 226 226 226
 226 226 257 257 53 53 53 53 53 53 185 185 185 371 371 371 371 325 325 325
 316 316 316 316 316 380 391 391 391 391 391 391 257 257 257 257 257 398 398 398
 185 185 185 371 371 371 371 371 325 316 316 316 316 316 380 380 359 391 391 391
 391 114 114 257 257 257 257 398 398 398 398 185 194 371 371 371 371 371 325 316
 316 316 316 380 380 380 359 391 391 391 114 114 114 257 257 257 257 398 398 398
 240 240 194 194 194 371 371 371 316 316 316 316 380 380 380 380 359 359 391 114
 114 114 114 257 257 257 257 398 398 240 240 240 240 240 194 139 139 139 128 128
 40 40 380 380 380 380 359 359 359 114 114 114 114 55 55 257 257 240 240 240
 240 240 240 240 139 139 139 139 128 128 40 40 380 380 110 110 110 110 42 114
 114 114 114 55 55 55 55 240 240 240 240 240 240 240 139 139 139 139 128 128
 40 40 110 110 110 110 110 110 110 388 388 388 55 55 55 55 55 240 240 240
 240 240 240 240 139 139 139 139 128 128 40 40 110 110 110 110 110 110 110 223
 223 332 55 55 55 125 78 78 78 240 240 240 240 240 274 274 274 274 128 128
 79 79 110 110 110 110 110 120 120 332 332 332 332 181 125 125 125 78 78 198
 198 240 274 274 274 274 274 274 274 79 79 79 110 110 110 110 120 120 120 332
 332 332 332 125 125 125 125 78 78 205 205 240 274 274 274 274 274 79 79 79
 79 79 79 110 293 293 293 120 120 332 332 332 332 125 125 125 125 78 78 205
 263 263 274 274 274 274 79 79 79 79 79 79 79 293 293 293 293 293 166 166
 166 332 332 175 175 175 175 175 78 263 263 263 263 263 274 274 79 79 79 79
 79 79 79 293 293 293 293 166 166 166 166 166 175 175 175 175 175 175 175 263
 263 263 263 263 184 184 79 79 79 79 129 129 129 129 293 293 293 166 166 166
 166 166 175 175 175 175 175 175 263 263 263 263 263 263 184 184 79 79 79 79
 129 129 129 129 213 213 213 166 166 166 166 251 251 175 175 175 175 175 263 263
 263 263 263 263 184 327 327 79 129 129 129 129 129 129 213 213 213 166 166 154
 251 251 251 175 175 175 175 175 118 118 263 263 263 14 327 327 327 327 129 129
 129 129 129 129 213 213 239 154 154 154 154 251 251 20 20 20 20 311 118 118
 118 14 14 14 14 327 327 327 129 129 129 129 129 129 239 239 239 154 154 154
 154 154 154 20 20 20 20 311 118 118 118 14 14 14 14 327 327 327 327 129
 101 101 101 239 239 239 239 154 154 154 154 154 154 20 20 20 20 20 118 118
 118 14 14 14 14 327 327 327 104 104 101 101 101 101 239 239 239 154 154 154
 154 231 231 20 20 20 20 20 20 118 118 107 107 107 107 107 327 104 104 104
 104 101 101 101 239 239 275 154 154 231 231 231 231 20 20 20 20 20 20 118
 238 107 107 107 107 107 344 104 104 104 104 322 322 322 200 275 275 275 275 231
 231 231 231 231 20 20 20 20 20 238 238 238 228 228 228 107 344 344 104 104
 322 322 322 322 322 275 275 275 275 156 156 231 231 203 203 20 20 20 238 238
 238 238 267 267 267 267 344 344 220 220 322 322 322 322 322 275 275 275 9 9
 156 156 203 203 203 20 20 238 238 238 238 267 267 267 267 267 267 220 220 220
 322 322 322 322 9 9 9 9 9 9 9 9 203 203 203 203 238 238 238 238
 238 267 267 267 267 267 267 220 220 220 322 322 322 322 9 9 9 9 9 9
 9 9 15 15 15 53 53 53 53 238 238 267 267 267 267 267 325 220 220 220
 322 322 86 86 9 9 9 9 9 9 9 302 302 302 302 53 53 53 53 53
 53 162 162 371 371 371 325 325 325 325 383 384 86 86 86 9 9 9 9 9
 9 302 302 302 302 53 53 53 53 53 53 185 371 371 371 371 371 325 325 325
 384 384 384 68 86 9 9 9 226 226 391 302 302 302 302 53 53 53 53 53
 185 185 185 371 371 371 371 325 325 325 316 384 384 68 86 254 254 391 391 391
 391 391 302 302 302 53 53 53 53 53 185 185 185 371 371 371 371 371 325 325
 316 316 316 316 316 254 391 391 391 391 391 391 391 163 163 163 163 398 398 398
 185 185 185 371 371 371 371 371 371 316 316 316 316 316 380 380 391 391 391 391
 391 391 114 257 163 163 163 398 398 398 185 185 194 371 371 371 371 371 371 316
 316 316 316 316 380 380 391 391 391 391 391 114 114 257 163 163 163 163 398 240
 240 240 240 1 1 1 1 1 1 316 128 316 316 380 380 380 42 391 391 391
 114 114 114 257 257 163 163 163 398 240 240 240 240 240 1 1 1 1 128 128
 40 40 40 380 380 380 42 42 42 391 114 114 114 114 55 163 163 240 240 240
 240 240 240 240 139 139 139 139 128 128 40 40 40 110 110 110 42 42 42 42
 114 114 114 181 181 55 198 198 198 198 240 240 240 240 139 139 139 128 128 128
 128 40 110 110 110 110 110 42 42 42 332 181 181 181 181 125 198 198 198 198
 240 240 240 240 139 139 139 128 128 128 128 40 110 110 110 110 110 110 42 332
 332 332 181 181 181 125 125 78 198 198 198 240 240 274 274 274 274 274 128 128
 138 138 110 110 110 110 110 150 150 332 332 332 332 181 125 125 125 125 205 198
 198 274 274 274 274 274 274 274 274 138 79 79 79 110 110 110 150 150 150 332
 332 332 332 125 125 125 125 125 205 205 205 205 274 274 274 274 274 274 79 79
 79 79 79 293 293 293 293 150 150 332 332 332 332 125 125 125 125 125 205 205
 205 205 274 274 274 274 274 79 79 79 79 79 79 293 293 293 293 293 166 166
 166 332 332 125 125 125 125 125 205 205 205 263 263 318 318 274 79 79 79 79
 79 79 79 293 293 293 293 166 166 166 166 166 404 175 175 175 175 175 205 263
 263 263 263 318 318 318 79 79 79 79 79 129 129 129 293 293 293 166 166 166
 166 166 404 404 175 175 175 175 263 263 263 263 263 318 318 318 79 79 79 79
 129 129 129 129 213 213 213 166 166 166 166 166 404 404 404 175 175 175 263 263
 263 263 263 318 318 327 327 79 79 129 129 129 129 129 213 213 213 166 166 166
 154 154 404 404 404 404 175 118 118 118 263 263 263 14 327 327 327 327 129 129
 129 129 129 129 213 213 213 154 154 154 154 154 404 404 404 404 20 118 118 118
 118 118 14 14 327 327 327 327 327 129 129 129 129 129 239 239 154 154 154 154
 154 154 154 404 404 20 20 118 118 118 118 118 14 14 327 327 327 327 142 142
 142 101 101 129 239 239 154 154 154 154 154 154 154 20 20 20 20 20 118 118
 118 118 14 14 327 327 327 327 142 142 142 101 101 101 200 200 154 154 154 154
 154 231 231 231 20 20 20 20 118 118 118 118 107 107 107 327 327 142 142 142
 104 101 101 200 200 200 275 154 154 231 231 231 231 231 20 20 20 20 20 118
 118 228 228 228 228 107 327 104 104 104 322 322 322 322 200 200 275 275 275 231
 231 231 231 231 231 20 20 149 149 238 238 228 228 228 228 228 344 104 104 104
 322 322 322 322 200 275 275 275 275 156 156 231 231 136 136 149 149 149 149 238
 238 238 228 228 228 228 281 344 220 322 322 322 322 322 200 275 275 275 275 156
 156 156 136 136 136 149 149 149 149 238 238 267 267 267 267 267 281 220 220 322
 322 322 322 322 322 275 275 275 275 156 156 156 136 136 136 149 149 149 149 238
 238 267 267 267 267 267 281 220 220 220 322 322 322 322 9 9 9 9 9 9
 156 156 136 136 136 53 149 149 149 238 238 162 162 267 267 267 281 281 220 220
 383 383 86 86 9 9 9 9 9 9 156 286 302 302 302 53 53 53 53 53
 53 162 162 162 371 371 325 325 383 383 383 383 26 26 86 9 9 9 9 9
 286 286 302 302 302 53 53 53 53 53 53 162 162 162 371 371 371 325 383 383
 383 26 26 26 26 9 9 9 391 391 391 286 302 302 302 53 53 53 53 53
 185 185 162 371 371 371 371 371 383 383 316 26 26 26 26 254 254 391 391 391
 391 391 302 302 163 163 53 53 53 53 185 185 185 371 371 371 371 371 383 383
 316 316 26 26 254 254 254 391 391 391 391 391 391 163 163 163 163 163 53 324
 208 208 208 371 371 371 371 371 371 316 316 316 316 316 254 254 254 391 391 391
 391 391 391 163 163 163 163 163 398 398 208 208 208 1 1 1 1 1 1 316
 316 316 316 316 380 254 254 391 391 391 391 391 114 163 163 163 163 163 163 240
 240 240 1 1 1 1 1 1 1 316 128 316 316 380 328 328 42 42 391 391
 391 114 114 163 163 163 163 163 163 240 240 240 240 1 1 1 1 1 128 128
 128 40 40 328 328 328 42 42 42 42 114 114 114 114 163 163 401 198 240 240
 240 240 240 1 1 1 1 1 128 128 128 128 40 110 328 328 42 42 42 42
 42 114 181 181 181 401 198 198 198 198 240 240 240 240 1 1 1 128 128 128
 128 128 110 110 110 110 42 42 42 42 332 181 181 181 181 181 198 198 198 198
 198 240 240 240 274 274 274 128 128 128 128 128 110 110 110 110 110 150 150 150
 332 332 181 181 181 125 125 198 198 198 198 240 274 274 274 274 274 274 128 128
 138 138 246 246 246 246 150 150 150 150 332 332 332 181 125 125 125 205 205 205
 205 205 274 274 274 274 274 274 138 138 138 79 79 110 110 150 150 150 150 150
 332 332 332 125 125 125 125 205 205 205 205 205 274 274 274 274 274 274 138 138
 79 79 79 293 293 293 150 150 150 150 332 332 332 125 125 125 125 205 205 205
 205 205 274 274 274 274 274 79 79 79 79 79 79 293 293 293 293 150 150 166
 166 332 332 125 125 125 125 205 205 205 205 205 318 318 318 318 79 79 79 79
 79 79 79 293 293 293 293 166 166 166 166 166 404 404 404 404 175 205 205 205
 263 318 318 318 318 318 79 79 79 79 79 79 129 129 293 293 293 166 166 166
 166 166 404 404 404 404 175 175 65 65 65 318 318 318 318 318 79 79 79 79
 129 129 129 129 353 353 353 166 166 166 166 404 404 404 404 404 404 65 65 65
 65 65 318 318 318 327 327 79 79 79 129 129 129 129 353 353 353 353 166 166
 154 404 404 404 404 404 404 404 65 65 65 65 318 318 327 327 327 327 327 129
 129 129 129 129 353 353 353 154 154 154 154 154 404 404 404 404 404 118 118 118
 118 118 329 329 327 327 327 327 327 129 142 129 129 129 353 353 154 154 154 154
 154 154 404 404 404 404 404 118 118 118 118 118 329 329 327 327 327 327 142 142
 142 142 129 129 353 353 154 154 154 154 154 154 231 404 404 20 20 20 118 118
 118 118 329 329 327 327 327 142 142 142 142 142 101 200 200 200 200 154 154 154
 231 231 231 231 231 20 20 20 118 118 118 118 329 107 327 327 327 142 142 142
 142 142 200 200 200 200 200 200 154 231 231 231 231 231 231 20 20 20 196 196