# vtk DataFile Version 2.0
Data set from IO Version 6.4.197.9a0dee2
ASCII

DATASET RECTILINEAR_GRID
DIMENSIONS 31 31 31
X_COORDINATES 31 float
-2.566667 2.566667 7.700000 12.833333 17.966667 23.099998 28.233334 33.366669 38.500000 43.633331 48.766666 53.900002 59.033333 64.166664 69.300003 74.433334 79.566666 84.699997 89.833328 94.966667 100.099998 
105.233330 110.366669 115.500000 120.633331 125.766663 130.899994 136.033325 141.166672 146.300003 151.433334 
Y_COORDINATES 31 float
-2.566667 2.566667 7.700000 12.833333 17.966667 23.099998 28.233334 33.366669 38.500000 43.633331 48.766666 53.900002 59.033333 64.166664 69.300003 74.433334 79.566666 84.699997 89.833328 94.966667 100.099998 
105.233330 110.366669 115.500000 120.633331 125.766663 130.899994 136.033325 141.166672 146.300003 151.433334 
Z_COORDINATES 31 float
-2.566667 2.566667 7.700000 12.833333 17.966667 23.099998 28.233334 33.366669 38.500000 43.633331 48.766666 53.900002 59.033333 64.166664 69.300003 74.433334 79.566666 84.699997 89.833328 94.966667 100.099998 
105.233330 110.366669 115.500000 120.633331 125.766663 130.899994 136.033325 141.166672 146.300003 151.433334 
CELL_DATA 27000
SCALARS FeatureIds int 1
LOOKUP_TABLE default
 246 384 384 384 384 170 307 307 307 307 363 363 363 363 363 281 281 281 281 281
 276 232 232 232 232 232 11 11 11 246 246 97 384 384 384 384 307 307 307 307
 363 363 363 363 48 48 168 168 276 276 276 276 232 232 232 232 11 11 11 246
 97 97 97 384 384 384 307 307 307 212 212 212 212 212 212 168 168 168 276 276
 276 276 232 232 232 232 11 11 11 246 97 97 97 97 384 384 307 307 307 212
 212 212 212 96 96 168 168 168 276 276 276 276 232 106 106 106 106 106 11 97
 97 97 97 97 97 97 387 104 104 104 212 212 96 96 96 357 168 168 276 276
 276 276 276 106 106 106 106 106 106 97 335 335 335 335 335 387 387 387 104 104
 104 96 96 96 96 357 357 168 276 276 276 276 106 106 106 106 106 106 106 335
 335 335 335 335 263 387 387 387 387 104 104 96 96 96 96 357 190 190 190 276
 276 206 98 98 106 106 106 106 135 335 335 335 263 263 263 387 387 387 387 387
 104 96 96 96 96 357 190 190 190 190 224 8 8 8 8 106 106 135 135 135
 116 116 304 304 304 304 387 387 387 387 269 269 269 18 96 94 94 94 94 94
 224 224 8 8 8 8 135 135 135 135 116 116 304 304 304 304 387 387 387 162
 269 269 269 18 22 22 94 94 94 183 224 224 8 8 8 8 135 135 135 135
 116 116 116 116 304 304 134 134 162 162 162 269 18 18 22 22 22 94 183 183
 183 8 8 8 8 8 8 135 135 116 116 116 116 116 196 196 134 134 162 162
 162 162 18 22 22 22 22 183 183 183 183 183 8 8 8 8 101 101 101 116
 116 116 116 116 196 196 196 134 162 162 162 162 18 22 22 22 22 183 183 183
 183 183 377 377 377 377 101 101 101 116 116 116 164 164 196 196 196 196 162 162
 162 162 298 22 22 22 22 183 122 122 122 377 377 377 377 377 101 101 101 101
 116 164 164 164 164 196 196 196 65 65 65 298 298 370 370 370 370 370 122 122
 122 377 377 377 377 377 101 101 101 101 164 164 164 164 164 164 188 188 119 119
 119 298 298 298 370 370 370 370 313 9 377 377 377 377 377 377 377 101 101 101
 164 164 164 164 164 164 188 119 119 119 119 119 298 298 370 370 370 313 313 9
 9 377 377 377 377 377 377 101 285 285 285 164 164 164 164 188 188 119 119 119
 119 119 298 298 370 370 370 9 9 9 9 9 377 377 377 377 377 285 285 285
 285 285 129 129 129 188 188 119 119 119 14 61 61 175 175 175 175 9 9 9
 9 9 377 377 377 377 377 285 285 285 285 129 129 129 129 188 188 14 14 14
 14 61 61 175 175 175 175 9 9 9 9 9 13 13 13 377 28 34 34 34
 203 203 129 129 129 129 188 14 14 14 14 61 61 61 175 175 175 201 201 201
 201 13 13 13 13 13 34 34 34 34 203 203 203 129 129 129 264 264 14 14
 264 61 61 61 175 175 175 201 201 201 201 13 13 13 13 13 13 34 34 34
 333 203 203 203 108 108 264 264 264 264 264 264 61 248 248 319 319 319 201 201
 201 13 13 13 13 302 302 34 333 333 333 333 108 108 108 108 108 264 264 264
 264 264 248 248 248 319 319 319 319 273 273 273 13 13 302 302 302 333 333 333
 333 333 108 108 108 108 108 264 264 264 264 264 248 248 248 319 319 319 273 273
 273 273 273 266 266 266 266 266 333 333 63 63 108 108 108 108 108 108 264 264
 264 264 67 67 67 67 319 273 273 273 273 273 273 266 266 266 266 266 333 333
 63 63 63 108 108 108 108 108 108 264 264 67 67 67 67 67 207 207 273 273
 273 273 273 266 266 266 266 266 114 63 63 63 63 63 108 108 108 108 108 78
 78 67 67 67 67 67 207 207 207 273 273 273 266 266 266 266 266 114 114 63
 63 63 63 63 170 170 170 108 78 78 78 78 67 67 67 67 207 207 207 273
 273 273 232 232 266 266 114 114 114 63 63 63 63 384 170 170 170 170 78 78
 78 75 75 67 67 67 281 281 281 281 232 232 232 232 232 232 114 114 114 114
 246 384 384 384 384 170 307 307 307 307 363 363 363 363 48 48 281 281 281 31
 232 232 232 232 232 232 11 11 11 246 246 97 384 384 384 384 307 307 307 307
 363 363 363 363 48 48 168 168 168 276 276 232 232 232 232 232 11 11 11 246
 97 97 97 384 384 384 307 307 307 212 363 363 363 212 168 168 168 168 168 276
 276 232 232 232 232 232 11 11 11 246 97 97 97 97 384 384 307 307 307 212
 212 212 96 96 96 168 168 168 168 276 276 232 232 232 232 106 106 106 11 97
 97 97 97 97 384 384 387 104 104 104 104 96 96 96 96 96 168 168 168 276
 276 206 206 106 106 106 106 106 106 97 97 97 97 97 263 387 387 387 104 104
 104 96 96 96 96 96 168 168 168 276 206 206 206 106 106 106 106 106 106 335
 335 263 263 263 263 387 387 387 387 104 104 96 96 96 96 96 190 190 190 190
 206 206 206 106 106 106 106 106 106 335 263 263 263 263 263 387 387 387 387 387
 104 96 96 96 96 96 190 190 190 190 224 206 8 8 106 106 106 106 135 135
 263 263 263 304 263 387 387 387 387 387 269 18 18 18 18 94 94 94 94 94
 224 224 8 8 8 8 135 135 135 135 116 116 304 304 304 304 387 387 387 162
 162 18 18 18 18 22 94 94 94 183 224 224 224 8 8 8 8 135 135 135
 116 116 304 304 304 304 134 162 162 162 162 18 18 18 18 22 94 94 94 183
 224 224 8 8 8 8 8 135 135 116 116 116 116 116 196 196 196 162 162 162
 162 162 18 18 22 22 22 183 183 183 183 183 8 8 377 377 101 101 101 116
 116 116 116 116 196 196 196 162 162 162 162 162 18 22 22 22 22 192 122 122
 122 377 377 377 377 377 377 101 101 116 242 242 242 196 196 196 196 196 162 162
 162 162 298 298 22 22 192 192 122 122 122 377 377 377 377 377 377 101 101 236
 236 242 164 164 196 196 196 196 65 65 65 298 298 298 298 370 370 122 122 122
 122 377 377 377 377 377 377 101 236 236 236 236 164 164 164 188 188 188 65 65
 65 65 298 298 298 370 370 370 9 9 377 377 377 377 377 377 377 236 236 236
 236 236 164 164 188 188 188 188 65 65 65 298 298 298 298 370 370 9 9 9
 9 377 377 377 377 377 377 236 236 236 236 236 164 188 188 188 188 188 188 65
 119 61 298 298 202 202 202 9 9 9 9 9 377 377 377 377 377 28 236 236
 285 285 188 188 188 188 188 188 188 61 61 61 61 61 175 175 175 9 9 9
 9 9 377 377 377 377 28 28 28 285 115 115 129 129 188 188 188 188 14 61
 61 61 61 61 175 175 175 9 9 9 9 9 377 377 377 377 28 28 28 34
 115 115 115 129 188 188 188 188 61 61 61 61 61 61 175 175 175 201 201 201
 201 201 90 90 90 90 28 28 28 34 115 115 115 115 188 188 264 264 264 264
 61 61 61 61 61 175 319 201 201 201 201 201 90 90 90 90 28 34 34 333
 333 115 115 108 108 108 264 264 264 264 264 61 61 61 61 319 319 319 201 201
 201 201 90 90 90 302 302 333 333 333 333 333 108 108 108 108 108 264 264 264
 264 264 61 61 61 319 319 319 319 201 201 201 256 90 302 302 302 333 333 333
 333 333 108 108 108 108 108 264 264 264 264 264 61 61 248 319 319 319 319 273
 273 256 256 256 266 266 266 333 333 333 333 63 108 108 108 108 108 108 264 264
 264 264 67 67 67 67 319 319 273 273 273 256 256 266 266 266 266 266 333 333
 63 63 63 108 108 108 108 108 108 264 264 67 67 67 67 67 207 207 207 273
 273 256 256 266 266 266 266 266 114 114 63 63 63 108 108 108 108 108 108 78
 78 67 67 67 67 67 207 207 207 207 273 256 256 266 266 266 266 114 114 114
 63 63 63 216 170 170 170 108 78 78 78 78 67 67 67 67 207 207 207 207
 273 232 232 232 232 266 114 114 114 114 63 63 216 216 170 170 170 170 78 78
 78 78 78 67 67 67 207 207 207 207 232 232 232 232 232 232 114 114 114 114
 246 216 216 216 216 170 307 307 307 82 363 363 363 363 48 48 48 31 31 31
 31 232 232 232 232 232 232 114 114 246 246 97 384 384 384 384 307 307 307 82
 363 363 363 363 48 48 48 168 31 31 31 232 232 232 232 232 11 11 11 246
 97 97 97 384 384 384 307 307 307 82 363 363 363 363 48 48 168 168 168 31
 31 232 232 232 232 232 232 11 11 246 97 97 97 97 384 384 307 307 307 82
 212 96 96 96 96 168 168 168 168 168 31 232 232 232 232 232 232 11 11 97
 97 97 97 97 384 384 387 104 104 104 104 96 96 96 96 96 168 168 168 168
 206 206 206 232 106 106 106 106 106 97 97 97 97 97 263 387 387 387 104 104
 104 96 96 96 96 96 168 168 168 206 206 206 206 106 106 106 106 106 106 97
 158 158 263 263 263 263 387 387 387 104 104 96 96 96 96 96 190 190 190 206
 206 206 206 106 106 106 106 106 106 97 158 158 263 263 263 263 387 387 387 387
 104 96 96 96 96 96 190 190 190 190 206 206 206 106 106 106 106 106 106 135
 158 263 263 263 263 263 387 387 387 387 269 18 18 18 96 94 94 94 94 94
 224 224 224 8 8 8 106 106 135 135 263 263 263 263 263 263 387 387 387 162
 162 18 18 18 18 18 94 94 94 94 224 224 224 8 8 8 8 135 135 135
 116 116 304 304 304 263 134 162 162 162 162 18 18 18 18 22 94 94 94 183
 224 224 224 291 291 291 291 275 275 275 242 242 116 116 196 196 196 162 162 162
 162 162 18 18 18 22 22 192 122 122 122 224 291 291 291 291 291 275 275 275
 242 242 242 242 196 196 196 196 162 162 162 162 18 18 141 141 192 192 122 122
 122 377 377 377 377 377 377 275 275 275 242 242 242 242 196 196 196 196 65 65
 65 65 298 141 141 141 192 192 192 122 122 377 377 377 377 377 377 236 236 236
 236 242 242 242 196 196 196 188 65 65 65 65 298 298 298 141 192 192 192 122
 377 377 377 377 377 377 377 236 236 236 236 236 242 188 188 188 188 188 65 65
 65 65 298 298 298 202 202 192 9 9 377 377 377 377 377 377 377 236 236 236
 236 236 188 188 188 188 188 188 65 65 65 65 298 298 202 202 202 9 9 9
 9 377 377 377 377 377 377 236 236 236 236 236 188 188 188 188 188 188 188 65
 65 61 61 202 202 202 202 9 9 9 9 9 377 377 377 377 377 28 236 236
 236 188 188 188 188 188 188 188 188 61 61 61 61 61 202 202 202 9 9 9
 9 9 377 377 377 377 28 28 28 236 115 115 188 188 188 188 188 188 61 61
 61 61 61 61 61 202 202 9 9 9 9 9 377 90 90 377 28 28 28 28
 115 115 115 188 188 188 188 188 61 61 61 61 61 61 61 175 175 201 201 201
 201 201 90 90 90 90 28 28 28 115 115 115 115 115 188 188 188 264 264 61
 61 61 61 61 61 61 319 319 201 201 201 201 90 90 90 90 28 28 28 115
 115 115 115 115 108 108 264 264 264 264 61 61 61 61 61 319 319 319 319 201
 201 201 90 90 90 90 333 333 333 333 333 333 7 7 108 108 108 264 264 264
 264 61 61 61 61 319 319 319 319 319 201 256 256 90 90 266 333 333 333 333
 333 7 7 7 108 108 108 264 264 264 264 61 61 61 61 319 319 319 319 319
 256 256 256 256 266 266 266 333 333 333 333 7 7 7 108 108 108 108 264 264
 264 264 67 67 67 67 319 319 319 273 256 256 256 256 266 266 266 266 333 333
 63 7 7 7 108 108 108 108 108 264 264 67 67 67 67 67 207 207 207 273
 256 256 256 256 266 266 266 114 114 114 114 63 216 216 108 108 108 108 108 44
 78 67 67 67 67 67 207 207 207 207 256 256 256 256 266 266 114 114 114 114
 114 216 216 216 216 170 170 108 108 78 78 78 67 67 67 67 207 207 207 207
 378 232 232 232 232 266 114 114 114 114 114 216 216 216 216 170 170 170 78 78
 78 78 78 67 67 67 207 207 207 31 232 232 232 232 232 232 114 114 114 114
 148 216 216 216 216 216 307 307 82 82 82 113 113 113 48 48 48 31 31 31
 31 232 232 232 232 232 232 114 114 148 148 216 216 216 216 216 307 307 82 82
 82 113 113 113 48 48 48 31 31 31 31 232 232 232 232 232 232 148 148 148
 148 97 97 384 384 384 307 307 82 82 82 113 113 113 48 48 48 31 31 31
 31 232 232 232 232 232 232 148 148 148 97 97 97 97 384 384 307 307 82 82
 82 113 113 113 96 168 168 168 31 31 31 232 232 232 232 232 232 148 148 148
 97 97 97 97 384 228 228 228 104 104 295 96 96 96 96 96 168 168 168 206
 206 206 206 232 232 106 106 106 102 97 215 215 215 215 228 228 228 228 104 104
 104 96 96 96 96 96 168 168 206 206 206 206 206 206 106 106 106 106 102 215
 158 158 263 263 263 228 228 228 228 104 104 96 96 96 96 310 310 190 206 206
 206 206 206 206 106 106 106 106 106 215 158 158 263 263 263 263 228 228 228 387
 104 96 96 96 310 310 310 190 190 92 92 92 92 92 106 106 106 106 326 215
 158 158 263 263 263 263 387 387 387 387 239 239 18 239 310 310 94 94 94 92
 92 92 92 92 291 291 106 326 135 326 158 263 263 263 263 263 263 387 387 162
 162 239 18 18 18 310 94 94 94 92 92 92 291 291 291 291 291 326 275 275
 242 263 263 263 263 263 263 162 162 162 162 239 18 18 18 239 94 94 94 183
 224 4 291 291 291 291 291 275 275 275 242 242 242 263 263 196 196 162 162 162
 162 262 18 18 141 141 192 192 192 122 4 4 291 291 291 291 386 275 275 275
 242 242 242 242 196 196 196 196 162 162 262 262 262 141 141 141 192 192 192 192
 122 377 291 291 291 291 386 275 275 275 242 242 242 242 196 196 196 65 65 65
 65 262 187 141 141 141 192 192 192 192 122 377 377 377 377 386 386 236 275 275
 236 242 242 242 188 188 188 188 65 65 65 65 298 298 141 141 192 192 192 192
 377 377 377 377 377 377 377 236 236 236 236 236 242 188 188 188 188 188 65 65
 65 65 298 298 202 202 192 192 192 9 377 377 377 377 377 377 377 236 236 236
 236 236 188 188 188 188 188 188 65 65 65 65 298 202 202 202 202 202 9 9
 9 377 377 377 377 377 377 236 236 236 236 236 188 188 188 188 188 188 188 65
 65 61 61 202 202 202 202 202 9 9 9 9 377 377 377 377 28 28 236 236
 236 236 188 188 188 188 188 188 188 61 61 61 61 61 202 202 202 202 9 9
 9 9 271 271 271 271 28 28 28 236 115 115 188 188 188 188 188 188 61 61
 61 61 61 61 61 202 202 202 9 9 9 271 271 271 271 271 28 28 28 236
 115 115 115 188 188 188 188 188 61 61 61 61 61 61 61 202 202 64 201 201
 201 90 90 90 90 90 28 28 28 115 115 115 115 115 188 188 188 61 61 61
 61 61 61 61 61 61 64 64 201 201 201 90 90 90 90 90 28 28 28 115
 115 115 115 115 115 108 264 264 264 61 61 61 61 61 61 64 64 64 64 201
 201 90 90 90 90 90 28 292 292 292 292 115 7 7 7 108 108 264 264 264
 61 61 61 61 61 329 64 64 64 64 256 256 256 90 90 90 292 292 292 292
 292 7 7 7 7 108 108 264 264 44 61 61 61 61 329 329 329 64 64 64
 256 256 256 256 256 266 266 292 292 292 292 7 7 7 7 108 108 108 44 44
 44 44 67 329 329 329 329 329 64 378 256 256 256 256 256 266 266 266 292 292
 7 7 7 7 7 108 108 108 44 44 44 44 67 67 329 329 329 329 378 378
 256 256 256 256 256 318 318 114 114 114 114 216 216 216 216 108 108 108 44 44
 44 67 67 67 67 329 207 207 378 378 378 256 256 256 318 318 318 114 114 114
 114 216 216 216 216 216 170 108 44 44 78 78 67 67 354 354 354 207 378 378
 378 232 232 232 232 318 114 114 114 114 114 216 216 216 216 216 170 170 309 309
 78 78 78 67 354 354 354 354 31 31 31 232 232 232 232 232 114 114 114 114
 148 148 216 216 216 216 307 82 82 82 309 309 113 113 113 354 354 31 31 31
 31 232 232 232 232 232 232 148 148 148 148 148 216 216 216 216 364 82 82 82
 82 113 113 113 113 48 48 31 31 31 31 232 232 232 232 232 232 148 148 148
 148 148 97 384 384 364 364 364 82 82 82 113 113 113 113 48 48 31 31 31
 31 232 232 232 232 232 232 148 148 148 148 215 215 215 351 364 364 364 295 82
 295 113 113 113 113 48 168 31 31 31 31 232 232 232 232 232 232 148 148 148
 215 215 215 215 215 228 228 295 295 295 295 105 105 105 96 310 168 31 31 31
 206 206 206 232 232 232 106 102 102 102 215 215 215 215 215 228 228 228 295 295
 295 105 105 105 310 310 310 121 31 206 206 206 206 206 106 106 106 102 102 215
 215 215 215 215 263 228 228 228 228 295 295 105 105 310 310 310 310 310 92 92
 92 92 92 92 106 106 106 102 102 215 158 158 263 263 263 228 228 228 228 295
 295 105 310 310 310 310 310 310 92 92 92 92 92 92 92 106 326 326 326 215
 158 158 263 263 263 263 228 228 228 295 239 239 239 239 310 310 310 310 92 92
 92 92 92 92 92 291 326 326 326 326 100 301 301 301 301 301 301 47 47 162
 239 239 239 239 239 310 310 310 92 92 92 92 291 291 291 291 291 326 326 100
 100 100 301 301 301 301 301 47 162 162 239 239 239 239 239 239 239 94 94 4
 4 4 291 291 291 291 291 100 100 100 275 242 242 301 301 277 277 47 162 262
 262 262 239 239 239 239 239 192 192 4 4 4 291 291 291 291 386 275 275 275
 275 242 242 242 277 277 277 277 262 262 262 262 262 187 187 141 192 192 192 192
 4 4 291 291 291 386 386 275 275 275 275 242 242 242 277 277 277 277 65 262
 262 262 187 187 187 141 192 192 192 192 345 345 345 291 386 386 386 275 275 275
 236 242 242 242 277 277 188 188 65 65 65 262 187 187 187 141 192 192 192 192
 345 345 345 377 386 386 386 236 236 236 236 236 242 188 188 188 188 188 65 65
 65 65 187 187 202 202 192 192 127 127 345 345 345 345 377 386 386 236 236 236
 236 236 188 188 188 188 188 188 65 65 65 65 298 202 202 202 202 127 127 127
 127 345 345 377 377 377 386 236 236 236 236 236 188 188 188 188 188 188 188 65
 65 61 61 202 202 202 202 127 127 127 127 127 271 271 271 271 28 28 236 236
 236 188 188 188 188 188 188 188 188 61 61 61 61 61 202 202 202 127 127 127
 127 271 271 271 271 271 28 28 28 236 115 115 188 188 188 188 188 188 61 61
 61 61 61 61 61 202 202 127 127 127 127 271 271 271 271 271 28 28 28 28
 115 115 115 188 188 188 188 188 61 61 61 61 61 61 61 202 64 64 127 201
 127 271 271 271 271 271 28 28 28 115 115 115 115 115 188 188 188 61 61 61
 61 61 61 61 61 64 64 64 64 64 201 90 90 90 90 90 28 28 292 292
 292 115 115 115 115 321 321 264 61 61 61 61 61 61 61 64 64 64 64 64
 64 90 90 90 90 90 292 292 292 292 292 292 7 7 7 108 321 44 44 44
 61 61 61 61 329 329 64 64 64 64 64 256 256 90 90 90 292 292 292 292
 292 292 7 7 7 7 108 44 44 44 44 61 61 329 329 329 329 64 64 64
 256 256 256 256 256 256 292 292 292 292 292 7 7 7 7 7 108 44 44 44
 44 44 61 329 329 329 329 329 64 378 256 256 256 256 256 318 318 292 292 292
 235 7 7 7 7 7 108 44 44 44 44 44 67 329 329 329 329 329 378 378
 378 256 256 256 318 318 318 318 114 235 235 235 216 216 216 216 108 44 44 44
 44 44 67 329 329 329 329 378 378 378 378 378 256 318 318 318 318 114 114 235
 235 235 216 216 216 216 216 44 44 309 309 309 309 354 354 354 354 378 378 378
 378 378 232 318 318 318 318 114 114 235 235 216 216 216 216 216 216 216 309 309
 309 309 113 113 354 354 354 354 31 31 31 31 232 232 232 318 318 114 114 235
 148 280 216 216 216 216 364 364 309 309 309 309 113 113 113 354 354 31 31 31
 31 31 232 232 232 232 232 148 148 148 148 148 216 216 216 364 364 364 364 309
 309 113 113 113 113 113 31 31 31 31 31 31 232 232 232 232 232 148 148 148
 148 148 351 351 351 364 364 364 364 364 309 113 113 113 113 113 31 31 31 31
 31 31 232 232 232 232 232 148 148 148 102 215 215 351 351 364 364 364 364 364
 105 105 113 113 113 113 31 31 31 31 31 31 232 232 232 232 102 102 102 102
 215 215 215 215 351 364 364 364 295 295 295 105 105 105 113 310 121 121 31 31
 31 206 206 232 232 232 102 102 102 102 215 215 215 215 215 228 228 228 295 295
 295 105 105 105 310 310 121 121 121 92 92 92 92 92 92 102 102 102 102 102
 215 215 215 215 215 228 228 228 295 295 295 105 105 310 310 310 310 121 121 92
 92 92 92 92 92 326 326 102 102 102 215 215 215 301 301 228 228 228 295 295
 295 105 105 310 310 310 310 310 92 92 92 92 92 92 92 326 326 326 326 326
 215 301 301 301 301 301 228 228 47 295 239 239 239 239 310 310 310 310 92 92
 92 92 92 92 92 326 326 326 326 326 100 301 301 301 301 301 301 47 47 47
 239 239 239 239 239 239 310 310 92 92 92 92 92 291 291 291 326 326 326 100
 100 100 301 301 301 301 47 47 47 262 239 239 239 239 239 239 239 239 92 92
 4 4 4 291 291 291 326 100 100 100 100 100 301 301 301 301 47 47 47 262
 262 262 239 239 239 239 239 192 192 4 4 4 4 291 291 386 386 100 100 100
 275 242 242 301 277 277 277 47 262 262 262 262 262 187 239 239 192 192 192 4
 4 4 4 291 386 386 386 275 275 275 275 242 242 242 277 277 277 277 320 262
 262 262 187 187 187 141 192 192 192 192 345 345 345 386 386 386 386 386 275 275
 275 242 242 242 277 277 277 320 320 320 262 262 187 187 187 141 192 192 192 345
 345 345 345 386 386 386 386 386 275 275 236 236 242 188 188 188 188 320 320 320
 320 320 187 187 187 202 192 127 127 127 345 345 345 345 386 386 386 236 236 236
 236 236 188 188 188 188 188 188 320 320 320 320 320 202 202 202 233 127 127 127
 127 345 345 345 46 46 46 236 236 236 236 210 188 188 188 188 188 188 320 320
 320 320 61 202 202 202 233 233 127 127 127 345 271 271 271 46 46 28 236 236
 210 210 210 188 188 188 188 188 311 311 61 61 61 61 202 202 202 127 127 127
 127 271 271 271 271 271 46 28 28 236 210 210 210 188 188 188 188 188 311 311
 61 61 61 61 61 202 202 127 127 127 127 271 271 271 271 271 28 28 28 28
 210 210 210 188 188 188 188 188 61 61 61 61 61 61 61 109 64 64 127 127
 127 271 271 271 271 271 28 28 28 292 292 115 115 115 321 321 321 61 61 61
 61 61 61 61 61 109 64 64 64 64 64 271 271 271 271 271 271 28 292 292
 292 292 115 115 321 321 321 44 61 61 61 61 61 61 61 64 64 64 64 64
 64 271 90 90 90 271 292 292 292 292 292 292 7 7 321 321 321 44 44 44
 44 61 61 61 329 329 64 64 64 64 64 218 256 90 90 271 292 292 292 292
 292 292 7 7 7 321 321 44 44 44 44 44 61 329 329 329 329 64 64 64
 64 256 256 256 256 318 292 292 292 292 292 292 7 7 7 7 44 44 44 44
 44 44 209 329 329 329 329 64 64 378 378 256 256 256 318 318 318 292 292 292
 235 7 7 7 7 7 44 44 44 44 44 44 209 329 329 329 329 329 378 378
 378 378 256 318 318 318 318 318 235 235 235 235 216 216 216 216 44 44 44 44
 44 309 309 329 329 329 329 378 378 378 378 378 256 318 318 318 318 318 235 235
 235 235 216 216 216 216 216 44 44 309 309 309 309 354 354 354 354 378 378 378
 378 378 232 318 318 318 318 318 235 235 235 235 216 216 216 216 5 5 309 309
 309 309 309 113 354 354 354 354 31 31 31 31 232 232 318 318 318 148 235 235
 280 280 280 216 216 5 364 364 309 309 309 309 113 113 113 354 354 31 31 31
 31 31 232 232 232 232 148 148 148 148 148 280 351 351 351 364 364 364 364 364
 309 113 113 113 113 113 31 31 31 31 31 31 232 232 232 232 148 148 148 148
 148 102 351 351 351 364 364 364 364 364 309 113 113 113 113 113 31 31 31 31
 31 31 232 232 232 232 102 102 148 148 102 102 351 351 351 364 364 364 364 364
 105 105 105 113 113 113 31 31 31 31 31 31 232 232 232 102 102 102 102 102
 102 215 215 351 351 364 364 364 364 295 105 105 105 105 105 121 121 121 121 31
 31 66 66 232 232 102 102 102 102 102 102 215 215 215 351 364 364 364 295 295
 105 105 105 105 105 121 121 121 121 121 92 66 66 66 66 102 102 102 102 102
 215 215 215 215 351 228 228 228 295 295 105 105 105 257 310 310 121 121 121 92
 92 92 92 92 92 326 326 326 102 102 215 215 215 215 301 314 228 228 295 295
 54 54 257 257 310 310 310 121 92 92 92 92 92 92 92 326 326 326 326 326
 215 301 301 301 301 301 47 47 47 47 54 54 239 257 310 310 310 310 92 92
 92 92 92 92 92 326 326 326 326 326 100 301 301 301 301 301 47 47 47 47
 239 239 239 239 239 239 239 310 92 92 92 92 92 92 291 12 326 326 326 100
 100 100 301 301 301 301 47 47 47 47 239 239 239 239 239 239 239 239 92 92
 4 4 4 291 291 12 326 326 100 100 100 100 301 301 301 47 47 47 47 262
 262 239 239 239 239 239 239 239 239 4 4 4 4 291 291 386 386 100 100 100
 100 100 242 277 277 277 277 47 47 262 262 262 239 239 239 239 239 192 192 4
 4 4 4 291 386 386 386 100 100 100 100 100 242 277 277 277 277 320 320 320
 262 262 187 187 187 239 192 192 192 107 345 345 345 386 386 386 386 386 100 100
 100 100 242 277 277 277 277 320 320 320 320 320 187 187 187 187 192 192 107 107
 345 345 345 386 386 386 386 386 275 275 236 236 367 188 188 188 188 320 320 320
 320 320 187 187 187 233 233 233 127 127 345 345 345 345 386 386 386 236 236 236
 236 210 188 188 188 188 188 320 320 320 320 320 320 187 233 233 233 233 127 127
 345 345 345 345 46 46 46 46 236 236 210 210 210 188 188 188 188 320 320 320
 320 320 320 320 233 233 233 233 127 127 127 345 271 271 46 46 46 46 236 236
 210 210 210 210 188 188 188 188 311 311 311 61 61 61 258 233 233 233 127 127
 127 271 271 271 271 46 46 46 46 210 210 210 210 210 188 188 188 311 311 311
 311 61 61 61 109 109 233 233 127 127 127 271 271 271 271 271 46 46 28 210
 210 210 210 210 188 321 321 311 311 311 61 61 61 61 109 109 109 233 127 127
 127 271 271 271 271 271 46 28 292 210 292 210 210 210 321 321 321 321 61 61
 61 61 61 61 109 109 109 64 64 64 218 271 271 271 271 271 271 292 292 292
 292 292 115 321 321 321 321 321 61 61 61 61 61 61 109 109 64 64 64 64
 218 218 218 90 271 223 292 292 292 292 292 292 292 321 321 321 321 321 44 44
 44 61 61 209 329 329 64 64 64 64 218 218 218 218 223 252 252 292 292 292
 292 292 7 321 321 321 321 44 44 44 44 44 209 209 329 329 329 64 64 64
 218 218 218 256 318 252 252 292 292 292 292 292 7 50 321 321 321 44 44 44
 44 44 209 209 329 329 329 64 64 378 378 378 256 256 318 318 318 252 292 292
 235 235 50 50 50 50 44 44 44 44 44 44 209 209 329 329 329 329 378 378
 378 378 180 180 318 318 318 318 252 235 235 235 50 50 50 50 44 44 44 44
 44 309 209 209 329 329 329 378 378 378 378 378 180 180 318 318 318 318 235 235
 235 235 216 50 50 5 5 5 44 309 309 309 309 354 354 354 354 378 378 378
 378 378 180 180 318 318 318 318 235 235 235 280 216 216 216 5 5 5 309 309
 309 309 309 113 354 354 354 354 31 31 31 31 232 232 318 318 318 318 235 235
 280 280 280 280 5 5 5 5 5 309 309 309 113 113 113 354 290 290 31 31
 31 31 232 232 232 232 148 148 148 148 148 102 351 351 351 364 364 364 364 364
 309 113 113 113 113 113 31 31 31 31 31 31 232 232 232 232 102 102 148 148
 102 102 351 351 351 364 364 364 364 364 364 113 113 113 113 113 31 31 31 31
 31 31 232 232 232 102 102 102 102 102 102 102 351 351 351 364 364 364 364 364
 105 105 105 105 113 121 121 121 31 31 31 31 232 232 102 102 102 102 102 102
 102 102 351 351 351 364 364 364 364 364 105 105 105 105 105 121 121 121 121 121
 66 66 66 66 102 102 102 102 102 102 102 102 215 351 351 364 364 364 364 105
 105 105 105 105 105 121 121 121 121 121 66 66 66 66 66 102 102 102 102 102
 102 215 215 215 314 314 314 314 295 105 105 105 105 257 257 121 121 121 121 92
 66 66 66 66 66 326 326 326 102 102 102 215 215 314 314 314 314 314 295 105
 54 54 257 257 257 310 121 121 121 92 92 92 92 92 92 326 326 326 326 326
 219 219 301 301 314 314 314 314 47 54 54 54 257 257 257 310 310 121 92 92
 92 92 92 92 12 326 326 326 326 326 100 219 301 301 301 314 47 47 47 47
 54 239 239 239 239 239 239 341 341 92 92 92 92 12 12 12 12 326 326 100
 100 100 301 301 221 221 47 47 47 47 239 239 239 239 239 239 239 239 341 92
 4 4 4 291 12 12 12 12 100 100 100 100 100 221 221 221 47 47 47 47
 262 239 239 239 239 239 239 239 341 4 4 4 4 291 12 12 12 100 100 100
 100 100 100 221 221 221 221 47 47 262 262 262 239 239 239 239 239 239 107 107
 4 4 4 126 126 126 126 100 100 100 100 100 367 367 221 277 277 320 320 320
 320 262 239 239 239 239 239 107 107 107 107 107 107 126 126 126 126 100 100 100
 100 100 367 367 367 277 277 320 320 320 320 320 187 187 187 187 233 107 107 107
 107 107 107 126 126 126 126 126 100 100 100 367 367 367 367 367 320 320 320 320
 320 320 320 187 187 233 233 233 107 107 107 107 107 46 46 46 46 46 100 100
 210 210 367 367 367 188 188 320 320 320 320 320 320 258 233 233 233 233 233 127
 107 345 345 46 46 46 46 46 46 157 210 210 210 210 188 188 188 320 320 320
 320 320 320 258 258 233 233 233 233 127 127 345 271 46 46 46 46 46 46 210
 210 210 210 210 188 188 188 320 311 311 311 320 258 258 258 233 233 233 233 127
 127 271 271 271 46 46 46 46 46 210 210 210 210 210 210 188 188 311 311 311
 311 61 258 258 258 109 233 233 233 127 127 271 271 271 271 46 46 46 210 210
 210 210 210 210 210 321 321 311 311 311 311 61 61 109 109 109 109 109 233 127
 223 223 223 223 223 223 46 169 169 210 210 210 210 210 321 321 321 321 311 311
 311 61 61 109 109 109 109 109 64 64 223 223 223 223 223 223 223 169 169 169
 292 292 210 321 321 321 321 321 311 61 61 61 61 109 109 109 109 64 64 64
 218 218 218 223 223 223 252 292 292 292 292 292 321 321 321 321 321 321 118 44
 44 209 209 209 209 109 64 64 64 64 218 218 218 223 223 252 252 252 292 292
 292 292 50 321 321 321 321 118 118 44 44 209 209 209 209 329 329 64 64 64
 218 218 218 223 252 252 252 252 252 292 292 50 50 50 50 321 321 118 118 44
 44 209 209 209 209 329 329 64 64 378 378 334 218 180 252 252 252 252 252 252
 235 50 50 50 50 50 118 118 118 44 44 161 209 209 209 329 329 329 378 378
 378 334 180 180 180 318 252 252 252 252 235 235 50 50 50 50 50 118 118 118
 161 161 161 209 209 329 329 290 378 378 378 334 180 180 180 318 318 252 252 235
 235 284 50 50 50 5 5 5 5 309 309 309 309 354 354 354 290 290 290 378
 378 334 180 180 180 318 318 318 235 235 284 284 284 284 5 5 5 5 5 309
 309 309 309 113 354 354 290 290 290 290 31 31 180 180 318 318 318 318 235 235
 284 284 284 284 5 5 5 5 5 5 309 309 113 113 350 350 290 290 290 290
 31 31 330 330 95 95 102 102 148 284 102 284 351 351 351 5 5 5 364 364
 309 113 113 113 350 350 350 290 290 31 31 31 330 330 232 102 102 102 102 102
 102 102 351 351 351 364 364 364 364 364 364 105 316 316 350 350 350 31 31 31
 31 31 330 232 102 102 102 102 102 102 102 102 351 351 351 364 364 364 364 364
 105 105 316 316 316 350 121 121 121 31 31 31 66 74 102 102 102 102 102 102
 102 102 351 351 351 364 364 364 364 364 105 105 105 316 316 366 121 121 121 121
 121 66 66 74 74 102 102 102 102 102 102 102 102 351 314 314 364 364 364 105
 105 105 105 316 366 366 121 121 121 121 66 66 66 66 74 74 102 102 102 102
 102 102 102 314 314 314 314 314 364 105 105 105 105 257 366 366 121 121 121 121
 66 66 66 66 74 74 326 102 102 102 219 219 219 314 314 314 314 314 314 105
 382 382 257 257 257 310 121 121 121 92 92 66 66 92 326 326 326 326 326 326
 219 219 219 314 314 314 314 314 314 382 382 382 382 257 257 310 341 341 341 92
 92 92 92 92 12 326 326 326 326 326 219 219 219 314 314 314 314 47 47 331
 382 239 239 239 239 239 341 341 341 341 92 92 379 12 12 12 12 12 12 100
 100 219 219 221 221 221 221 47 47 47 331 239 239 239 239 324 324 341 341 341
 379 379 379 379 12 12 12 12 100 100 100 100 219 221 221 221 221 221 47 145
 331 239 239 239 324 324 324 341 341 341 379 379 379 126 126 12 12 12 100 100
 100 100 100 221 221 221 221 221 145 145 145 262 239 239 324 324 324 324 107 107
 379 379 379 126 126 126 126 100 100 100 100 100 367 367 221 149 149 149 320 145
 320 320 239 239 239 324 324 107 107 107 107 107 107 126 126 126 126 126 100 100
 100 367 367 367 367 149 149 320 320 320 320 320 320 381 187 324 233 107 107 107