# vtk DataFile Version 2.0
Data set from IO Version 6.4.197.9a0dee2
ASCII

DATASET RECTILINEAR_GRID
DIMENSIONS 31 31 31
X_COORDINATES 31 float
-3.250000 3.250000 9.750000 16.250000 22.750000 29.250000 35.750000 42.250000 48.750000 55.250000 61.750000 68.250000 74.750000 81.250000 87.750000 94.250000 100.750000 107.250000 113.750000 120.250000 126.750000 
133.250000 139.750000 146.250000 152.750000 159.250000 165.750000 172.250000 178.750000 185.250000 191.750000 
Y_COORDINATES 31 float
-3.250000 3.250000 9.750000 16.250000 22.750000 29.250000 35.750000 42.250000 48.750000 55.250000 61.750000 68.250000 74.750000 81.250000 87.750000 94.250000 100.750000 107.250000 113.750000 120.250000 126.750000 
133.250000 139.750000 146.250000 152.750000 159.250000 165.750000 172.250000 178.750000 185.250000 191.750000 
Z_COORDINATES 31 float
-3.250000 3.250000 9.750000 16.250000 22.750000 29.250000 35.750000 42.250000 48.750000 55.250000 61.750000 68.250000 74.750000 81.250000 87.750000 94.250000 100.750000 107.250000 113.750000 120.250000 126.750000 
133.250000 139.750000 146.250000 152.750000 159.250000 165.750000 172.250000 178.750000 185.250000 191.750000 
CELL_DATA 27000
SCALARS FeatureIds int 1
LOOKUP_TABLE default
 135 135 135 135 181 181 181 286 286 286 286 286 286 286 300 300 300 300 300 300
 273 273 273 3 3 3 3 3 135 135 135 135 135 181 181 181 181 286 286 286
 286 286 286 286 300 300 300 300 300 300 273 273 273 3 3 3 3 3 135 135
 44 44 44 181 181 181 345 345 286 286 286 286 286 286 286 300 300 300 300 278
 273 273 273 3 3 3 3 3 3 135 44 44 44 44 181 181 345 345 345 286
 286 286 286 286 369 369 369 369 369 278 273 209 209 3 3 3 3 3 246 246
 44 44 44 44 44 345 345 345 345 286 286 286 286 286 369 369 369 369 369 42
 42 209 209 209 209 209 209 246 246 246 246 298 298 298 69 69 345 138 138 238
 238 238 238 238 369 369 369 369 369 42 209 209 209 209 209 209 209 246 246 246
 246 298 298 69 69 69 69 138 138 238 238 238 238 238 369 369 369 369 369 42
 209 209 209 209 209 209 209 246 246 246 246 246 298 69 69 69 69 138 138 238
 238 238 238 238 238 369 369 369 369 16 16 16 209 209 209 209 209 246 246 246
 361 246 379 222 69 69 69 138 138 238 238 238 238 238 20 20 20 20 20 16
 16 16 16 209 209 209 209 209 361 361 361 379 379 379 379 69 69 138 138 238
 238 238 238 238 20 20 20 20 20 16 16 16 16 16 209 209 209 209 361 361
 356 379 379 379 379 115 115 115 134 134 134 134 158 238 20 20 20 20 266 266
 16 16 16 16 16 209 209 356 356 356 356 356 379 379 115 115 115 115 134 134
 134 134 134 134 20 20 20 20 266 266 266 16 16 16 16 209 275 356 356 356
 356 356 214 379 115 115 115 115 134 134 134 134 134 134 134 20 20 266 266 266
 266 266 189 189 189 142 142 142 356 356 356 214 214 115 115 115 115 115 134 134
 134 134 134 134 134 134 266 266 266 266 266 189 189 189 189 142 142 142 142 142
 142 214 214 115 115 115 115 115 134 134 134 134 134 134 134 324 324 324 324 266
 266 266 189 189 142 142 142 142 142 142 142 142 45 45 45 45 45 234 234 134
 134 134 134 134 134 324 324 324 324 324 266 266 189 189 142 142 142 142 142 142
 142 123 45 45 45 45 45 234 234 234 134 134 134 134 39 39 324 324 324 324
 301 301 301 301 142 142 142 142 142 142 37 123 45 45 45 45 45 234 234 234
 134 106 106 106 39 39 39 324 324 301 301 301 301 301 37 37 37 37 37 37
 37 37 45 45 45 45 45 234 234 234 234 106 106 106 39 39 39 324 324 301
 301 301 301 37 37 37 37 37 37 37 37 37 45 45 45 45 45 234 234 365
 365 365 365 126 6 6 6 6 86 86 301 301 261 37 37 37 37 37 37 37
 37 37 121 45 45 45 221 221 365 365 365 365 365 126 126 6 6 6 253 86
 261 261 261 261 37 37 37 37 37 37 37 121 121 221 221 221 221 221 365 365
 365 365 126 126 126 126 6 253 253 253 261 261 261 261 37 37 37 37 37 37
 121 121 121 221 221 221 221 221 365 365 365 365 126 126 126 126 126 253 253 253
 253 261 261 261 284 284 284 37 37 37 121 121 121 221 221 221 221 221 365 365
 365 126 126 126 126 126 126 253 253 253 253 276 276 276 284 284 284 37 37 37
 200 200 353 353 221 221 221 221 137 137 137 126 126 126 126 126 126 253 253 253
 253 276 276 276 284 284 284 284 359 359 200 200 200 353 167 167 167 137 137 137
 137 126 126 126 300 300 300 253 253 253 273 276 273 273 273 284 284 254 359 359
 200 200 135 167 167 167 167 167 137 137 137 126 300 300 300 300 300 300 300 273
 273 273 273 273 273 273 254 254 254 200 135 135 135 135 167 167 167 167 137 137
 137 300 300 300 300 300 300 300 300 273 273 273 273 273 273 273 254 254 254 254
 135 135 135 135 167 167 167 167 286 286 286 286 300 300 300 300 300 300 300 273
 273 273 273 273 273 273 254 254 254 135 135 135 135 135 167 167 167 167 286 286
 286 286 286 300 300 300 300 300 300 273 273 273 273 273 3 3 3 254 254 135
 135 135 135 135 174 174 174 174 286 286 286 286 286 300 300 300 300 300 300 300
 273 273 273 271 271 271 271 271 271 135 135 135 135 174 174 174 174 174 286 286
 286 286 286 286 300 300 300 300 300 278 273 273 273 271 271 271 271 271 271 135
 44 44 44 44 174 174 174 345 286 286 286 286 286 286 286 300 300 300 300 278
 278 278 278 271 271 271 271 271 271 135 44 44 44 44 174 174 218 218 62 62
 286 286 286 286 364 369 369 300 42 278 278 278 196 196 196 271 271 271 271 246
 44 44 44 44 44 218 218 218 218 62 286 286 364 364 364 369 369 369 42 42
 42 42 209 196 196 196 196 196 246 246 246 298 298 44 69 69 218 218 218 238
 238 238 238 364 364 369 369 369 42 42 42 209 209 209 209 209 209 251 246 246
 246 298 298 69 69 69 69 218 218 238 238 238 238 238 364 369 369 369 42 42
 42 209 209 209 209 209 209 251 246 246 246 246 69 69 69 69 69 69 238 238
 238 238 238 238 238 369 369 20 279 279 279 16 209 209 209 209 209 251 251 246
 361 379 379 379 69 69 69 69 238 238 238 238 238 238 20 20 20 20 279 279
 279 16 16 209 209 209 209 251 251 361 361 379 379 379 379 69 69 99 238 238
 238 238 238 238 20 20 20 20 279 279 279 16 16 16 209 209 209 251 361 361
 356 379 379 379 379 115 115 99 99 134 134 134 134 238 20 20 20 20 279 279
 16 16 16 16 209 209 209 356 356 356 356 379 379 379 115 115 115 115 134 134
 134 134 134 134 20 20 20 20 266 266 266 266 16 16 275 275 275 275 356 356
 356 214 214 214 115 115 115 115 134 134 134 134 134 134 134 20 20 266 266 266
 266 266 266 266 275 275 275 142 356 356 214 214 214 214 115 115 115 115 134 134
 134 134 134 134 134 134 248 248 266 266 266 266 266 266 142 142 142 142 142 142
 214 214 214 214 115 115 115 115 134 134 134 134 134 134 134 248 248 248 266 266
 266 266 266 266 142 142 142 142 142 142 142 123 214 45 45 45 234 234 234 134
 134 134 134 134 134 39 324 324 324 266 266 266 266 266 142 142 142 142 142 142
 142 123 123 45 45 45 234 234 234 234 134 134 134 134 39 39 39 324 324 324
 266 266 266 266 142 142 142 142 142 142 123 123 123 45 45 45 234 234 234 234
 134 134 134 39 39 39 39 324 324 324 301 301 301 301 142 142 142 142 142 142
 123 123 123 45 45 45 234 234 234 234 134 106 106 39 39 39 39 324 86 86
 86 86 358 358 37 37 37 37 37 37 123 123 123 45 45 45 234 234 234 365
 365 126 126 126 126 39 39 86 86 86 86 86 358 358 37 37 37 37 37 37
 121 121 121 45 45 45 221 234 365 365 365 365 126 126 126 126 6 86 86 86
 261 261 261 261 37 37 37 37 37 37 121 121 121 121 221 221 221 221 365 365
 365 126 126 126 126 126 126 253 253 253 261 261 261 261 261 37 37 37 37 37
 121 121 121 121 221 221 221 221 365 365 365 126 126 126 126 126 126 253 253 253
 253 261 261 261 284 284 284 37 37 121 121 121 121 353 353 221 221 221 221 365
 126 126 126 126 126 126 126 253 253 253 253 253 276 284 284 284 284 284 37 121
 200 200 353 353 353 221 221 221 137 137 137 126 126 126 126 126 126 253 253 253
 253 253 273 273 284 284 284 284 200 200 200 200 295 353 353 167 167 137 137 137
 137 137 126 126 300 300 300 253 253 253 273 273 273 273 273 284 284 254 200 200
 200 200 295 295 295 167 167 137 137 137 137 137 300 300 300 300 300 300 300 273
 273 273 273 273 273 273 254 254 254 200 200 135 295 295 295 167 167 167 137 137
 137 300 300 300 300 300 300 300 300 273 273 273 273 273 273 273 254 254 254 200
 135 135 135 295 295 167 167 167 322 137 286 286 300 300 300 300 300 300 300 273
 273 273 273 273 273 271 254 254 254 254 135 135 135 135 167 167 167 322 286 286
 286 286 300 300 300 300 300 300 300 273 273 273 273 273 271 271 271 254 254 135
 135 135 135 174 174 174 174 322 322 286 286 286 286 300 300 300 300 300 300 278
 278 278 278 271 271 271 271 271 271 135 135 135 135 174 174 174 174 174 322 286
 286 286 286 300 300 300 300 300 300 278 278 278 278 271 271 271 271 271 271 317
 44 44 44 174 174 174 174 174 62 62 62 286 286 286 300 300 300 300 278 278
 278 278 278 271 271 271 271 271 271 327 44 44 44 44 174 174 218 218 62 62
 62 62 364 364 364 364 41 41 42 278 278 278 196 196 196 196 271 271 271 327
 44 44 44 44 174 218 218 218 218 62 62 62 364 364 364 41 41 41 42 42
 42 42 196 196 196 196 196 271 251 327 246 44 44 44 218 218 218 218 218 218
 238 238 364 364 364 41 41 41 42 42 42 42 196 196 196 196 196 251 251 251
 246 298 69 69 69 69 218 218 218 238 238 238 238 364 364 41 41 24 42 42
 42 42 209 209 209 209 251 251 251 251 246 246 69 69 69 69 69 218 218 238
 238 238 238 238 238 41 20 279 279 279 279 279 209 209 209 209 251 251 251 251
 107 107 379 379 69 69 69 69 238 238 238 238 238 238 20 20 20 279 279 279
 279 279 209 209 209 209 251 251 251 251 356 379 379 379 379 69 99 99 54 238
 238 238 238 238 20 20 20 20 279 279 279 279 16 209 209 209 251 251 251 251
 356 379 379 379 379 115 99 99 54 54 54 134 238 238 20 20 20 20 279 279
 279 279 16 16 275 275 275 275 356 356 356 356 379 379 115 115 99 99 54 54
 54 134 134 134 20 20 20 20 279 266 266 266 266 266 275 275 275 275 356 356
 356 214 214 214 115 115 115 115 54 54 134 134 134 134 134 20 20 248 266 266
 266 266 266 266 275 275 275 275 356 356 214 214 214 214 115 115 115 115 134 134
 134 134 134 134 134 248 248 248 266 266 266 266 266 266 275 275 142 142 142 142
 214 214 214 214 115 312 312 312 134 134 134 134 134 134 134 248 248 248 248 266
 266 266 266 266 142 142 142 142 142 142 123 123 214 214 45 312 312 234 234 134
 134 134 134 134 134 248 248 248 248 248 266 340 266 266 142 142 142 142 142 142
 123 123 123 123 45 234 234 234 234 234 134 134 134 134 39 39 248 248 248 248
 266 340 310 310 142 142 142 142 142 142 123 123 123 123 45 234 234 234 234 234
 134 134 134 39 39 39 39 248 248 86 86 310 310 310 142 142 142 142 142 123
 123 123 123 123 45 45 234 234 234 234 100 134 134 39 39 39 39 86 86 86
 86 86 358 358 358 37 37 37 37 123 123 123 123 123 45 45 234 234 234 100
 100 126 126 126 126 39 39 86 86 86 86 86 358 358 358 37 37 37 37 37
 121 121 121 121 45 45 234 100 100 100 126 126 126 126 126 126 126 86 86 86
 86 261 261 358 358 37 37 37 37 121 121 121 121 121 177 177 177 177 100 126
 126 126 126 126 126 126 126 253 253 253 261 261 261 261 358 37 37 37 37 121
 121 121 121 121 177 177 177 177 177 126 126 126 126 126 126 126 126 253 253 253
 253 261 261 261 284 284 284 284 121 121 121 121 121 353 353 177 177 177 137 126
 126 126 126 126 126 126 126 253 253 253 253 253 261 284 284 284 284 284 121 121
 121 121 121 353 353 353 177 137 137 137 137 126 126 126 126 126 126 253 253 253
 253 253 273 273 284 284 284 284 200 200 200 200 295 353 353 353 167 137 137 137
 137 126 126 126 300 300 300 253 253 253 273 273 273 273 273 284 284 254 200 200
 200 200 295 295 295 295 167 137 137 137 137 126 300 300 300 300 300 300 273 273
 273 273 273 273 273 273 254 254 254 200 200 295 295 295 295 295 167 322 137 137
 137 300 300 300 300 300 300 300 300 273 273 273 273 273 273 273 254 254 254 200
 135 295 295 295 295 295 322 322 322 322 286 300 300 300 300 300 300 300 300 273
 273 273 273 273 273 271 254 254 254 254 135 135 295 295 174 174 322 322 322 286
 286 286 300 300 300 300 300 300 300 273 273 273 273 271 271 271 271 271 254 135
 317 317 174 174 174 174 174 322 322 322 286 286 286 300 300 300 300 300 300 278
 278 278 278 271 271 271 271 271 317 317 317 317 174 174 174 174 174 174 62 62
 62 286 286 300 300 207 207 207 278 278 278 278 278 271 271 271 271 271 317 317
 44 44 44 174 174 174 174 174 62 62 62 62 286 364 300 207 207 207 278 278
 278 278 278 271 271 271 271 271 327 327 44 44 44 44 174 174 174 218 62 62
 62 62 364 364 364 364 207 24 278 278 278 278 35 35 196 196 271 271 327 327
 44 44 44 44 174 218 218 218 218 62 62 364 364 364 364 41 41 24 42 42
 42 35 35 196 196 196 196 271 327 327 246 44 44 218 218 218 218 218 218 218
 238 364 364 364 364 41 41 24 42 42 42 42 35 196 196 196 196 251 251 251
 107 107 107 69 69 218 218 218 218 218 238 238 364 364 364 41 41 24 42 42
 42 42 209 209 209 251 251 251 251 251 107 107 107 69 69 69 218 218 218 238
 238 238 238 364 364 217 217 279 279 279 279 279 209 209 209 251 251 251 251 251
 107 107 107 379 69 69 69 218 218 238 238 238 238 238 217 217 217 279 279 279
 279 279 209 209 209 251 251 251 251 251 107 107 107 379 379 99 99 99 54 54
 238 238 238 238 217 217 217 279 279 279 279 279 16 209 209 251 251 251 251 251
 107 107 107 379 379 99 99 99 54 54 54 238 238 217 217 217 217 279 279 279
 279 279 16 275 275 275 275 275 356 356 107 107 379 379 115 99 99 99 54 54
 54 134 134 134 217 217 217 279 279 279 279 266 266 275 275 275 275 275 356 356
 214 214 214 214 187 187 187 187 54 54 54 134 134 134 134 248 248 248 266 266
 266 266 266 266 275 275 275 275 356 356 214 214 214 214 187 187 187 187 134 134
 134 134 134 134 134 248 248 248 248 266 266 266 266 266 275 275 275 142 142 142
 214 214 214 214 187 312 312 312 338 134 134 134 134 134 134 248 248 248 248 248
 266 340 340 266 275 142 142 142 142 142 123 123 123 123 312 312 312 312 338 338
 134 134 134 134 134 248 248 248 248 248 340 340 340 310 142 142 142 142 142 142
 123 123 123 123 123 312 312 312 234 338 134 134 343 343 343 248 248 248 248 248
 310 340 310 310 310 142 142 142 142 123 123 123 123 123 45 234 234 234 234 234
 100 343 343 343 343 39 248 248 248 86 310 310 310 310 310 97 97 97 97 123
 123 123 123 123 45 234 234 234 100 100 100 100 343 343 343 39 39 86 86 86
 86 310 358 358 358 97 97 97 97 123 121 121 121 121 45 45 234 100 100 100
 100 100 126 126 126 39 303 86 86 86 86 86 358 358 358 358 97 97 97 97
 121 121 121 121 121 177 100 100 100 100 100 100 126 126 303 303 303 86 86 86
 86 86 358 358 358 358 97 97 97 121 121 121 121 121 177 177 177 100 100 100
 100 126 126 126 303 303 303 303 86 86 86 261 261 358 358 358 97 97 97 121
 121 121 121 121 177 177 177 177 100 126 126 126 126 126 126 303 303 253 253 253
 253 261 261 358 284 284 284 284 121 121 121 121 121 353 353 177 177 177 177 126
 126 126 126 126 126 303 303 253 253 253 253 253 253 139 284 284 284 284 121 121
 121 121 121 353 353 353 177 177 137 137 126 126 126 126 126 126 303 253 253 253
 253 357 273 139 284 284 284 284 342 121 200 200 295 353 353 353 51 51 137 137
 137 126 122 122 122 300 300 253 253 357 357 273 273 273 273 284 284 254 200 200
 200 295 295 295 295 295 295 51 137 137 137 122 122 122 300 300 300 300 273 273
 273 273 273 273 273 351 254 254 254 200 200 295 295 295 295 295 295 322 322 137
 137 300 300 300 300 300 300 300 300 273 273 273 273 273 273 271 254 254 254 200
 317 295 295 295 295 295 322 322 322 322 322 300 300 300 300 300 300 300 300 273
 273 273 273 247 247 271 254 254 254 254 317 295 295 295 174 174 322 322 322 322
 286 300 300 300 300 300 300 300 300 278 278 278 247 247 271 271 271 271 317 317
 317 317 317 174 174 174 174 322 322 322 55 55 55 207 207 207 207 207 278 278
 278 278 247 247 271 271 271 271 317 317 317 317 174 174 174 174 174 174 322 62
 55 55 55 207 207 207 207 207 278 278 278 278 278 271 271 271 271 271 317 317
 327 327 174 174 174 174 174 174 62 62 62 55 55 207 207 207 207 207 278 278
 278 278 35 35 271 271 271 271 327 327 327 327 44 174 174 174 174 218 62 62
 62 62 364 364 364 207 207 24 24 278 278 278 35 35 35 271 271 327 327 327
 327 327 44 318 174 218 218 218 218 62 62 364 364 364 364 41 24 24 24 42
 42 35 35 35 196 196 196 327 327 327 327 327 107 318 218 218 218 218 218 218
 381 364 364 364 364 41 24 24 24 42 42 35 35 35 196 196 196 251 251 327
 107 107 107 107 218 218 218 218 218 218 381 381 364 364 364 41 24 24 24 42
 42 42 35 35 209 251 251 251 251 251 107 107 107 107 69 218 218 218 218 381
 381 381 381 381 217 217 217 24 279 279 279 279 204 209 209 251 251 251 251 251
 107 107 107 107 22 22 22 218 218 381 381 381 381 217 217 217 217 217 279 279
 279 279 279 209 209 251 251 251 251 107 107 107 107 107 22 22 22 99 54 54
 381 381 381 217 217 217 217 217 279 279 279 279 279 128 128 251 251 251 251 107
 107 107 107 107 22 22 99 99 54 54 54 54 381 217 217 217 217 217 279 279
 279 279 128 128 128 275 275 275 251 107 107 107 107 187 187 187 187 99 54 54
 54 54 134 217 217 217 217 217 279 279 279 279 128 128 128 275 275 275 294 294
 107 214 214 187 187 187 187 187 54 54 54 134 134 134 217 217 217 248 180 180
 180 266 128 128 275 275 275 294 294 294 214 214 214 187 187 187 187 187 338 338
 134 134 134 134 134 248 248 248 180 180 180 266 266 128 275 275 275 294 294 294
 2 2 2 187 187 187 312 312 338 338 338 134 134 134 134 248 248 248 248 180
 180 310 310 310 275 142 294 294 294 294 2 123 123 123 187 312 312 312 338 338
 338 134 343 343 343 248 248 248 248 248 310 340 310 310 310 142 142 142 142 142
 123 123 123 123 187 312 312 312 338 338 338 343 343 343 343 248 248 248 248 310
 310 310 310 310 310 97 97 97 97 123 123 123 123 123 123 234 234 100 100 100
 100 343 343 343 343 343 248 248 248 310 310 310 310 310 310 97 97 97 97 97
 123 123 123 123 123 100 100 100 100 100 100 100 343 343 343 343 43 86 86 86
 310 310 310 358 358 97 97 97 97 97 121 121 121 121 121 100 100 100 100 100
 100 100 100 343 303 303 303 86 86 86 86 310 358 358 358 97 97 97 97 97
 121 121 121 121 121 100 100 100 100 100 100 100 100 303 303 303 303 86 86 86
 86 86 358 358 358 97 97 97 97 97 121 121 121 121 177 177 177 100 100 100
 100 100 126 303 303 303 303 303 86 86 86 86 139 358 139 97 97 97 97 121
 121 121 121 121 177 177 177 157 157 157 126 126 126 126 303 303 303 303 253 253
 253 139 139 139 139 139 97 97 342 121 121 121 121 121 177 177 177 157 157 157
 126 126 126 122 303 303 303 303 253 253 357 357 139 139 139 139 139 342 342 342
 342 121 121 353 353 353 51 51 51 51 122 122 122 122 122 122 303 253 357 357
 357 357 357 139 139 139 139 342 342 342 200 121 295 295 353 353 51 51 51 137
 137 122 122 122 122 122 122 357 357 357 357 357 357 357 139 351 351 342 342 342
 200 295 295 295 295 295 51 51 51 137 122 122 122 122 122 300 285 285 357 357
 357 357 357 357 351 351 351 254 254 200 295 295 295 295 295 295 51 51 51 137
 122 122 122 122 300 300 285 285 285 302 357 357 357 247 351 351 351 254 254 317
 317 295 295 295 295 295 322 322 322 322 322 85 85 85 300 300 300 285 285 302
 357 247 247 247 247 351 351 317 317 317 317 317 295 295 174 174 322 322 322 322
 322 85 85 85 300 207 300 300 146 278 278 247 247 247 247 271 271 317 317 317
 317 17 17 17 174 174 174 174 322 55 55 55 55 85 207 207 207 146 146 278
 278 278 247 247 247 271 271 317 317 317 317 17 17 174 174 174 174 174 174 55
 55 55 55 207 207 207 207 207 146 278 278 278 278 35 271 271 271 271 317 317
 327 327 318 318 318 174 174 174 62 62 55 55 55 207 207 207 207 207 278 278
 278 278 35 35 35 271 271 346 327 327 327 327 318 318 318 318 174 218 62 62
 62 62 364 207 207 207 207 24 24 352 278 35 35 35 35 35 346 346 327 327
 327 327 318 318 318 318 218 218 218 62 62 364 364 364 364 371 24 24 24 24
 278 35 35 35 35 35 346 346 327 327 327 327 318 318 318 218 218 218 218 218
 381 381 364 364 364 371 24 24 24 24 42 35 35 35 35 35 196 251 327 327
 327 107 107 318 318 218 218 218 218 381 381 381 381 364 371 371 24 24 24 24
 42 204 204 204 204 251 251 251 251 251 107 107 107 107 22 22 218 31 218 381
 381 381 381 381 217 217 217 24 24 24 279 204 204 204 204 251 251 251 251 107
 107 107 107 107 22 22 22 31 381 381 381 381 381 217 217 217 217 217 279 279
 279 279 204 204 204 251 251 251 251 107 107 107 107 107 22 22 22 22 381 381
 381 381 381 217 217 217 217 217 279 279 279 279 128 128 128 251 251 251 107 107
 107 107 107 107 22 22 22 99 54 54 54 381 381 217 217 217 217 217 279 279
 279 279 128 128 128 275 275 294 107 107 107 107 107 187 187 187 187 187 72 72
 54 54 110 217 217 217 217 217 279 279 279 128 128 128 128 275 294 294 294 294
 2 2 2 187 187 187 187 187 72 72 72 110 110 110 110 110 217 180 180 180
 180 180 128 128 128 294 294 294 294 294 2 2 2 187 187 187 187 187 338 338
 338 338 110 110 110 110 248 248 180 180 180 180 128 128 128 294 294 294 294 294
 2 2 2 2 187 187 187 187 338 338 338 338 110 110 110 248 248 248 180 180
 180 310 310 310 310 294 294 294 294 2 2 2 2 2 187 187 312 312 338 338
 338 338 343 343 343 248 248 248 248 310 310 310 310 310 310 97 294 294 2 2
 2 2 2 2 187 312 312 338 338 338 338 343 343 343 343 343 43 43 43 310
 310 310 310 310 310 97 97 97 97 97 123 123 123 123 166 166 100 100 100 100
 100 343 343 343 343 343 43 43 43 310 310 310 310 310 97 97 97 97 97 97
 97 123 123 123 166 100 100 100 100 100 100 100 343 343 343 343 43 43 43 310
 310 310 310 310 97 97 97 97 97 97 97 121 121 121 121 100 100 100 100 100
 100 100 100 343 303 303 303 43 86 86 310 310 310 310 97 97 97 97 97 97
 121 121 121 121 121 100 100 100 100 100 100 100 100 303 303 303 303 303 86 86
 86 310 310 310 97 97 97 97 97 97 121 121 121 121 121 157 157 157 100 100
 100 100 100 303 303 303 303 303 375 375 86 139 139 139 139 139 97 97 97 97
 121 121 121 121 157 157 157 157 157 157 220 220 220 303 303 303 303 303 375 375
 375 139 139 139 139 139 139 97 342 342 342 121 121 109 109 157 157 157 157 157
 220 220 220 122 122 303 303 303 357 357 357 139 139 139 139 139 139 342 342 342
 342 121 109 109 109 157 51 51 157 157 220 220 122 122 122 122 303 303 357 357
 357 357 139 139 139 139 139 342 342 342 342 109 109 109 109 109 51 51 51 157
 220 122 122 122 122 122 122 357 357 357 357 105 357 139 139 139 139 102 342 342
 109 109 109 109 109 109 51 51 51 51 220 122 122 122 122 122 285 285 357 357
 357 357 357 357 351 351 351 102 102 102 17 17 295 295 295 295 51 51 51 51
 227 227 122 122 122 122 285 285 302 302 357 357 357 247 351 351 351 102 102 317
 17 17 17 295 295 295 322 347 322 322 227 227 85 85 85 146 146 285 146 302
 302 247 247 247 247 351 351 102 317 317 317 17 17 295 174 174 347 347 347 347
 227 85 85 85 85 207 146 146 146 146 278 247 247 247 247 247 271 317 317 317
 17 17 17 17 174 174 347 347 347 347 55 55 55 207 207 207 146 146 146 146
 278 247 247 247 247 247 271 317 317 317 17 17 17 318 318 318 318 347 347 55
 55 55 55 207 207 207 207 146 146 352 278 278 247 35 35 271 271 346 317 317
 327 327 318 318 318 318 318 318 120 55 55 55 55 207 207 207 207 207 352 352
 352 35 35 35 35 35 346 346 346 327 327 327 318 318 318 318 318 318 62 62
 62 55 55 207 207 207 207 24 352 352 352 35 35 35 35 35 346 346 346 327
 327 327 318 318 318 318 318 218 218 62 381 381 364 371 371 371 371 24 24 352
 352 35 35 35 35 346 346 346 346 327 327 327 318 318 318 318 318 218 218 381
 381 381 381 371 371 371 371 24 24 24 352 35 35 204 204 346 346 346 346 327
 107 107 38 318 318 31 31 31 31 381 381 381 381 371 371 371 371 24 24 24
 127 204 204 204 204 204 251 251 251 327 107 107 38 38 31 31 31 31 31 381
 381 381 381 381 371 371 371 24 299 127 127 204 204 204 204 204 251 251 251 107
 107 38 38 38 22 22 31 31 31 381 381 381 381 217 217 217 217 217 299 299
 299 204 204 204 204 204 251 251 251 107 107 38 38 38 22 22 22 31 31 381
 381 381 381 217 217 217 217 217 299 299 299 299 204 204 204 204 251 251 107 107
 38 38 38 38 22 22 22 72 72 72 72 381 381 217 217 217 217 217 299 299
 299 299 128 128 128 128 294 294 294 107 38 38 38 187 187 187 187 72 72 72
 72 110 110 110 110 217 217 217 299 299 299 128 128 128 128 294 294 294 294 294
 2 2 2 187 187 187 187 72 72 72 72 110 110 110 110 110 289 289 289 180
 180 180 128 128 128 294 294 294 294 294 2 2 2 2 187 187 187 72 72 72
 72 110 110 110 110 110 289 289 289 180 180 180 128 128 128 294 294 294 294 294
 2 2 2 2 187 187 187 187 338 338 338 110 110 110 110 110 289 289 43 180
 180 310 310 310 310 294 294 294 294 2 2 2 2 2 187 187 187 270 338 338
 338 338 343 110 110 43 43 43 43 43 310 310 310 310 310 97 294 294 2 2
 2 2 2 2 166 166 166 338 338 338 338 343 343 343 343 43 43 43 43 43
 310 310 310 310 310 97 97 97 97 2 97 2 2 2 166 166 166 100 100 100
 100 343 343 343 343 43 43 43 43 43 310 310 310 310 97 97 97 97 97 97
 97 97 97 166 166 166 100 100 100 100 100 100 343 343 343 43 43 43 43 43
 310 310 310 310 97 97 97 97 97 97 97 97 97 166 166 166 100 100 100 100
 100 100 100 343 303 303 43 43 43 43 310 310 310 310 97 97 97 97 97 97
 97 97 121 121 121 157 157 100 100 100 100 100 100 303 303 303 303 303 375 375
 375 310 139 139 139 97 97 97 97 97 121 121 121 121 157 157 157 157 157 100
 100 220 220 303 303 303 303 303 375 375 375 139 139 139 139 139 97 97 97 97
 342 121 121 121 157 157 157 157 157 157 220 220 220 220 303 303 303 303 375 375
 375 139 139 139 139 139 139 97 342 342 342 109 109 109 109 157 157 157 157 157
 220 220 220 220 303 303 303 303 357 357 357 139 139 139 139 139 139 139 342 342
 342 109 109 109 109 157 157 157 157 157 220 220 220 122 122 122 303 357 357 357
 357 357 139 139 139 139 139 139 342 342 342 109 109 109 109 109 51 51 51 157
 220 220 122 122 122 122 122 357 357 357 357 357 357 139 139 139 102 102 102 342
 109 109 109 109 109 109 51 51 51 157 227 227 122 122 122 122 285 285 357 357
 357 357 357 139 351 351 102 102 102 102 17 17 17 109 109 109 51 347 51 227
 227 227 227 122 122 146 146 285 146 302 357 357 357 247 351 351 102 102 102 102
 17 17 17 17 295 347 347 347 347 347 227 227 227 85 85 146 146 146 146 146
 357 357 247 247 247 351 102 102 102 17 17 17 17 17 17 347 347 347 347 347
 227 227 85 85 85 146 146 146 146 146 146 247 247 247 247 247 102 102 317 17
 17 17 17 17 17 347 347 347 347 347 55 55 55 207 207 146 146 146 146 146
 374 374 247 233 233 233 316 346 317 17 17 17 17 318 318 318 347 347 347 347
 55 55 55 207 207 207 146 146 146 352 374 374 374 233 233 316 316 346 346 346
 327 17 318 318 318 318 318 120 120 120 55 55 55 207 207 207 207 146 352 352
 352 374 35 35 35 346 346 346 346 346 327 327 318 318 318 318 318 120 120 120
 120 55 55 371 371 371 371 352 352 352 352 352 35 35 35 346 346 346 346 346
 327 318 318 318 318 318 318 120 120 120 120 381 371 371 371 371 371 371 352 352
 352 352 35 35 35 346 346 346 346 346 327 318 318 318 318 318 318 31 120 120
 381 381 381 371 371 371 371 24 24 352 127 204 204 204 204 346 346 346 346 346
 38 38 383 383 383 31 31 31 31 31 381 381 381 371 371 371 371 371 127 127
 127 204 204 204 204 204 330 330 330 330 38 38 38 383 383 31 31 31 31 31
 381 381 381 381 371 371 371 371 127 127 127 204 204 204 204 204 330 330 330 330
 38 38 38 383 383 383 31 31 31 31 381 9 9 217 217 217 217 217 299 299
 299 127 204 204 204 204 330 330 330 38 38 38 38 383 383 383 80 80 31 72
 381 9 9 217 217 217 217 299 299 299 299 299 204 204 204 204 330 330 330 38
 38 38 38 38 80 80 80 80 72 72 72 66 110 217 217 217 217 217 299 299
 299 299 128 128 128 128 294 294 294 38 38 38 38 80 80 80 80 72 72 72
 72 110 110 110 110 217 217 289 299 299 299 299 128 128 128 294 294 294 294 294
 2 2 2 368 80 80 72 72 72 72 72 110 110 110 110 110 289 289 289 180
 180 260 128 128 128 294 294 294 294 294 2 2 2 2 187 187 72 72 72 72
 72 110 110 110 110 110 289 289 289 180 18 18 18 18 128 294 294 294 294 294
 2 2 2 2 187 187 270 270 72 72 338 110 110 110 110 110 289 289 289 43
 18 18 18 18 291 291 294 294 294 2 2 2 2 2 187 270 270 270 270 338
 338 338 110 110 110 43 43 43 43 43 18 18 18 18 291 291 291 294 2 2
 2 2 2 2 166 166 166 270 270 338 338 343 343 343 343 43 87 43 43 43
 310 18 310 310 291 291 97 97 97 2 97 2 2 2 166 166 166 270 100 100
 100 343 343 343 343 43 87 43 43 43 310 310 310 310 97 97 97 97 97 97
 97 97 323 166 166 166 166 100 100 100 100 100 343 343 343 43 43 43 43 43
 310 310 310 310 97 97 97 97 97 97 97 97 40 40 166 166 100 100 100 100
 100 100 100 343 43 43 43 43 43 43 310 310 310 310 97 97 97 97 97 97
 97 97 40 40 157 157 157 157 100 100 100 100 100 303 303 303 303 43 375 375
 375 310 139 139 139 97 97 97 97 97 97 121 121 109 157 157 157 157 157 157
 220 220 220 220 303 303 303 375 375 375 375 139 139 139 139 139 97 97 97 97
 342 121 109 109 157 157 157 157 157 157 220 220 220 220 303 303 303 303 375 375
 375 139 139 139 139 139 139 97 342 342 342 109 109 109 109 157 157 157 157 157
 220 220 220 220 303 303 303 349 349 375 139 139 139 139 139 139 139 139 342 342
 342 109 109 109 109 157 157 157 157 157 220 220 220 220 122 122 349 349 349 349
 357 139 139 139 139 139 139 139 342 342 109 109 109 109 109 109 157 157 157 157
 220 220 220 122 122 122 349 349 349 349 357 357 139 139 139 139 102 102 102 102
 109 109 109 109 109 109 157 157 157 157 227 227 227 122 212 212 212 349 349 349
 357 357 357 139 139 102 102 102 102 102 17 17 109 109 109 109 347 347 347 227
 227 227 227 227 212 212 146 146 146 357 357 357 357 233 233 102 102 102 102 102
 17 17 17 17 109 347 347 347 347 227 227 227 227 227 212 146 146 146 146 146
 357 357 233 233 233 102 102 102 102 17 17 17 17 17 17 347 347 347 347 347
 227 227 227 85 146 146 146 146 146 146 146 247 247 247 233 102 102 102 102 17
 17 17 17 17 67 67 67 347 347 347 55 55 55 207 207 146 146 146 146 146
 374 374 233 233 233 233 316 316 316 17 17 17 17 67 67 67 67 67 347 120
 120 55 55 207 207 146 146 146 146 146 374 374 374 233 233 316 316 316 316 316
 17 17 318 318 67 67 67 120 120 120 120 120 92 207 207 207 146 146 352 352
 374 374 374 374 35 346 346 346 346 346 327 117 318 318 318 318 67 120 120 120
 120 120 92 371 371 371 371 352 352 352 352 374 374 35 35 346 346 346 346 346
 117 117 318 318 318 318 318 120 120 120 120 9 76 76 371 371 371 371 352 352
 352 374 35 35 204 346 346 346 346 346 53 53 383 318 318 318 75 75 120 120
 9 9 76 76 371 371 371 371 127 127 127 127 204 204 204 204 346 346 346 330
 38 383 383 383 383 75 75 31 31 9 9 9 9 76 371 371 371 127 127 127
 127 127 204 204 204 204 330 330 330 330 38 38 383 383 383 383 31 31 31 9
 9 9 9 9 371 371 371 127 127 127 127 127 204 204 204 330 330 330 330 330
 38 38 38 383 383 383 31 31 31 9 9 9 9 9 12 12 12 127 127 127
 127 127 204 204 204 330 330 330 330 330 38 38 38 383 383 341 80 80 31 9
 9 9 9 12 12 12 12 12 299 299 299 299 204 204 204 330 330 330 330 38