# vtk DataFile Version 2.0
Data set from IO Version 6.4.197.9a0dee2
ASCII

DATASET RECTILINEAR_GRID
DIMENSIONS 31 31 31
X_COORDINATES 31 float
-3.250000 3.250000 9.750000 16.250000 22.750000 29.250000 35.750000 42.250000 48.750000 55.250000 61.750000 68.250000 74.750000 81.250000 87.750000 94.250000 100.750000 107.250000 113.750000 120.250000 126.750000 
133.250000 139.750000 146.250000 152.750000 159.250000 165.750000 172.250000 178.750000 185.250000 191.750000 
Y_COORDINATES 31 float
-3.250000 3.250000 9.750000 16.250000 22.750000 29.250000 35.750000 42.250000 48.750000 55.250000 61.750000 68.250000 74.750000 81.250000 87.750000 94.250000 100.750000 107.250000 113.750000 120.250000 126.750000 
133.250000 139.750000 146.250000 152.750000 159.250000 165.750000 172.250000 178.750000 185.250000 191.750000 
Z_COORDINATES 31 float
-3.250000 3.250000 9.750000 16.250000 22.750000 29.250000 35.750000 42.250000 48.750000 55.250000 61.750000 68.250000 74.750000 81.250000 87.750000 94.250000 100.750000 107.250000 113.750000 120.250000 126.750000 
133.250000 139.750000 146.250000 152.750000 159.250000 165.750000 172.250000 178.750000 185.250000 191.750000 
CELL_DATA 27000
SCALARS FeatureIds int 1
LOOKUP_TABLE default
 147 241 241 241 241 175 175 175 175 175 175 175 43 43 310 310 388 388 20 20
 20 20 71 71 286 286 1 1 1 1 147 241 241 241 241 241 175 175 175 175
 175 175 175 310 310 310 310 388 20 20 20 286 286 286 286 286 9 9 9 9
 147 147 241 241 241 241 175 175 175 175 175 175 175 310 310 310 310 388 279 279
 279 286 286 286 286 286 9 9 9 9 147 147 241 241 241 241 175 175 175 175
 175 175 175 310 310 310 310 279 279 279 279 286 286 286 286 286 9 9 9 9
 147 147 241 241 241 241 241 175 175 175 352 352 352 14 14 14 14 14 279 279
 279 286 286 286 286 356 9 9 9 9 147 147 241 241 241 82 82 82 175 175
 352 352 352 14 14 14 14 151 151 151 151 286 286 286 356 356 356 9 9 9
 116 116 116 82 82 60 82 82 140 140 140 140 140 140 14 14 14 151 151 151
 151 286 286 286 356 356 356 9 116 116 116 116 116 116 60 60 60 60 140 140
 140 140 140 202 202 202 202 202 151 151 151 151 286 286 356 356 356 116 116 116
 116 116 116 116 116 60 60 60 140 140 140 140 140 202 202 202 202 202 75 75
 340 340 340 340 356 356 31 116 116 116 116 116 116 116 116 60 132 132 132 140
 140 140 140 202 202 202 202 202 202 340 340 340 340 340 340 340 417 417 116 116
 116 116 116 116 116 116 132 132 132 132 214 140 202 202 202 202 202 202 340 340
 340 340 340 340 340 340 417 417 417 116 116 116 116 116 116 116 132 132 132 132
 189 189 189 202 202 202 202 202 340 340 340 340 340 340 340 417 417 417 417 116
 343 116 116 335 335 335 173 173 173 289 289 289 289 415 180 180 180 180 340 340
 340 340 340 340 340 340 417 417 417 343 343 335 335 335 335 335 173 173 173 173
 289 289 289 415 180 180 180 180 340 340 340 340 340 340 340 340 417 417 343 343
 335 335 335 335 335 335 173 173 173 173 289 289 289 415 180 180 180 339 339 339
 340 340 340 340 340 134 134 417 343 343 335 335 335 335 335 335 335 173 173 173
 173 289 386 386 386 180 339 339 339 339 339 340 340 340 134 134 134 134 134 406
 406 335 335 335 335 335 335 173 173 33 33 33 386 386 386 226 226 339 339 339
 339 339 4 134 134 134 134 134 134 406 406 406 335 335 335 335 335 335 33 33
 33 33 386 386 386 226 226 339 339 339 4 4 4 4 134 134 134 134 406 406
 406 406 406 335 335 335 335 33 33 33 33 22 22 22 22 22 165 165 165 27
 4 4 4 4 136 136 136 136 406 406 406 406 406 406 406 335 335 33 33 245
 33 22 22 22 22 22 165 165 165 4 4 4 4 4 136 136 136 136 406 406
 406 406 406 406 406 406 287 378 378 378 378 22 22 22 22 22 165 165 165 4
 4 4 4 136 136 136 136 136 406 406 406 406 406 406 406 287 287 378 378 378
 378 22 176 176 176 176 165 165 165 4 4 4 4 136 136 136 136 136 298 298
 298 406 406 406 287 287 287 378 378 378 400 400 176 176 176 176 176 370 370 375
 375 375 375 375 136 136 136 298 298 298 298 298 406 406 287 287 287 378 378 378
 400 400 400 176 176 176 370 370 370 375 375 375 375 375 375 208 298 298 298 298
 298 298 298 285 285 287 287 378 378 400 400 400 400 98 98 370 370 370 370 370
 375 375 375 375 208 208 208 298 298 298 298 298 298 285 285 285 285 97 103 103
 400 400 98 98 98 370 370 370 370 370 375 375 375 375 208 208 208 208 298 298
 40 40 285 285 285 285 97 97 103 103 103 400 5 98 98 370 370 370 370 159
 159 159 375 163 163 208 163 163 40 40 40 40 73 285 285 97 97 97 103 103
 103 5 5 5 5 370 125 125 20 20 20 20 163 163 163 163 163 163 40 40
 40 40 73 73 285 97 97 97 103 103 103 5 5 43 43 388 388 388 20 20
 20 20 20 163 163 163 163 1 40 40 40 40 73 73 97 97 97 97 175 175
 175 175 43 43 43 388 388 388 20 20 20 20 71 71 71 163 1 1 1 40
 83 73 73 73 73 73 183 175 175 175 175 175 43 43 43 388 388 388 388 20
 20 20 286 286 286 286 1 1 1 1 147 147 241 241 237 237 183 183 175 175
 175 175 43 43 310 310 388 388 388 20 20 286 286 286 286 286 9 9 9 9
 147 147 147 241 237 237 237 183 175 175 175 175 175 43 310 310 310 149 279 279
 279 286 286 286 286 286 9 9 9 9 147 147 147 241 241 237 237 237 175 175
 175 175 175 43 14 14 14 149 279 279 279 286 286 286 286 286 9 9 9 9
 147 147 147 241 241 237 237 237 175 175 352 352 352 352 14 14 14 149 279 279
 279 286 286 286 286 286 9 9 9 9 147 147 241 241 237 237 237 44 44 44
 352 352 352 352 14 14 14 75 75 75 75 286 286 286 286 356 356 9 9 9
 116 116 116 116 60 60 60 44 44 44 44 140 140 14 14 14 14 75 75 75
 75 75 286 286 286 356 356 9 116 116 116 116 116 116 60 60 60 44 44 44
 140 140 140 202 202 202 202 75 75 75 75 75 286 286 286 356 31 31 116 116
 116 116 116 116 60 60 60 44 44 44 214 214 214 202 202 202 202 75 75 75
 75 340 340 340 340 31 31 31 116 116 116 116 116 116 116 60 60 132 132 214
 214 214 214 202 202 202 202 202 75 340 340 340 340 340 340 31 31 31 116 116
 116 116 116 116 116 116 132 132 132 214 214 214 214 202 202 202 202 202 340 340
 340 340 340 340 340 417 417 417 417 116 116 116 116 116 116 116 13 173 13 214
 214 214 214 180 180 180 180 180 340 340 340 340 340 340 340 417 417 417 417 116
 116 116 116 116 116 335 173 173 173 289 289 289 289 415 180 180 180 180 340 340
 340 340 340 340 340 417 417 417 417 116 343 335 335 335 335 335 173 173 173 173
 289 289 289 415 180 180 180 180 340 340 340 340 340 340 340 340 417 417 417 343
 335 335 335 335 335 335 173 173 173 173 289 289 289 415 180 180 180 339 339 339
 340 340 340 340 340 396 396 396 417 343 335 335 335 335 335 335 173 173 173 173
 173 289 386 386 386 180 339 339 339 339 339 340 340 340 396 396 396 396 396 396
 406 335 335 335 335 335 335 173 173 173 173 386 386 386 386 226 339 339 339 339
 339 339 4 4 396 396 396 396 396 406 406 406 335 335 335 335 335 173 33 33
 33 386 386 386 386 386 339 339 339 339 4 4 4 4 396 396 396 396 396 406
 406 246 406 335 335 335 111 111 33 33 33 337 337 337 337 337 165 165 142 4
 4 4 4 4 136 136 396 396 396 406 246 246 246 406 406 335 111 111 33 245
 33 337 337 337 337 337 165 165 142 4 4 4 4 4 136 136 136 150 150 406
 406 246 406 406 406 287 287 287 378 378 378 337 337 337 337 337 165 142 142 142
 4 4 4 4 136 136 136 150 150 406 406 406 406 406 406 287 287 287 378 378
 378 403 176 176 176 176 142 142 142 142 4 4 4 4 136 136 136 150 150 298
 17 17 17 17 287 287 287 287 378 378 400 400 176 176 176 176 142 142 142 375
 375 375 375 375 375 136 136 298 298 298 17 17 17 17 287 287 287 287 287 400
 400 400 400 176 176 176 370 370 375 375 375 375 375 375 375 163 85 298 298 298
 17 17 17 285 285 287 287 287 287 400 400 400 400 98 98 370 370 370 370 375
 375 375 375 375 163 163 163 85 298 298 17 17 17 285 285 285 285 287 103 103
 103 400 98 98 98 370 370 370 370 159 159 375 375 163 163 163 163 85 85 40
 40 40 285 285 285 285 285 97 103 103 103 103 5 98 98 370 370 370 159 159
 159 159 163 163 163 163 163 163 40 40 40 40 73 285 285 285 97 97 103 103
 103 103 43 43 43 388 388 388 159 159 159 159 163 163 163 163 163 163 40 40
 40 40 73 73 73 97 97 97 103 103 103 103 43 43 43 388 388 388 388 159
 159 159 159 163 163 163 163 163 40 40 40 73 73 73 73 97 97 97 103 103
 103 43 43 43 43 388 388 388 388 20 20 159 71 163 163 163 163 163 40 40
 83 83 73 73 73 73 183 183 183 175 175 148 43 43 43 388 388 388 388 159
 159 23 23 23 23 163 163 163 163 9 83 83 83 73 237 237 183 183 183 175
 175 148 43 43 43 310 388 388 388 159 159 23 23 23 23 286 9 9 9 9
 147 147 83 237 237 237 237 183 183 175 175 175 148 43 149 149 149 149 149 279
 279 286 286 286 286 286 9 9 9 9 147 147 147 237 237 237 237 237 183 175
 175 175 175 43 149 149 149 149 149 279 279 286 286 286 286 286 9 9 9 9
 147 147 147 237 237 237 237 237 44 44 352 352 352 14 14 14 14 149 149 279
 279 286 286 286 286 286 9 9 9 9 398 398 398 237 237 237 237 44 44 44
 44 352 352 14 14 14 14 75 75 75 75 286 286 286 286 286 356 9 9 9
 116 398 116 116 60 60 60 44 44 44 44 44 44 14 14 14 14 75 75 75
 75 75 286 286 286 356 31 31 31 116 116 116 116 116 60 60 60 44 44 44
 44 214 214 214 202 202 202 75 75 75 75 75 75 286 286 31 31 31 31 116
 116 116 116 116 116 60 60 44 44 44 214 214 214 214 202 202 202 75 75 75
 75 75 340 340 31 31 31 31 31 116 116 116 116 116 116 60 60 44 44 214
 214 214 214 214 202 202 202 75 75 75 340 340 340 340 340 31 31 31 31 116
 116 116 116 116 116 116 13 13 13 214 214 214 214 214 202 180 202 202 340 340
 340 340 340 340 340 31 31 31 31 116 116 116 116 116 116 116 13 13 13 214
 214 214 214 180 180 180 180 180 340 340 340 340 340 340 340 417 417 417 417 116
 116 116 116 116 116 13 13 13 13 289 289 289 289 180 180 180 180 180 340 340
 340 340 340 340 340 340 417 417 417 116 116 116 335 335 335 335 173 173 173 173
 289 289 289 180 180 180 180 180 340 340 340 340 340 340 340 340 417 417 417 78
 78 335 335 335 335 335 173 173 173 173 289 289 289 180 180 180 180 339 339 339
 340 340 340 340 340 396 396 396 396 78 78 78 335 335 335 335 173 173 173 173
 173 289 386 386 180 180 180 339 339 339 339 340 340 340 396 396 396 396 396 78
 78 78 78 335 335 335 111 111 173 173 173 386 386 386 386 180 339 339 339 339
 339 339 4 396 396 396 396 396 396 78 78 78 78 335 335 335 111 111 111 173
 173 337 337 337 337 337 339 339 339 339 4 4 4 4 396 396 396 396 396 78
 406 246 406 335 335 111 111 111 111 111 337 337 337 337 337 337 337 142 142 142
 4 4 4 4 396 396 396 150 150 150 246 246 246 406 406 111 111 111 111 111
 337 337 337 337 337 337 142 142 142 142 4 4 4 4 136 150 150 150 150 150
 406 246 406 406 406 287 287 287 287 378 337 337 337 337 337 337 142 142 142 142
 4 4 4 4 136 150 150 150 150 150 17 17 17 17 287 287 287 287 287 378
 403 403 403 403 337 337 142 142 142 142 4 4 4 4 136 150 150 150 150 150
 17 17 17 17 287 287 287 287 287 378 403 403 403 403 176 176 142 142 142 375
 375 375 375 375 375 150 150 150 150 17 17 17 17 17 287 287 287 287 287 401
 401 403 403 403 411 411 142 142 142 375 375 375 375 375 375 85 85 85 85 17
 17 17 17 285 285 287 287 287 401 401 401 401 411 411 411 411 370 159 159 159
 375 375 375 375 163 163 85 85 85 17 17 17 17 285 285 285 285 287 401 401
 401 401 411 411 411 411 159 159 159 159 159 159 163 163 163 163 85 85 85 85
 40 17 17 285 285 285 285 97 103 103 103 103 411 411 411 159 159 159 159 159
 159 159 163 163 163 163 163 85 85 40 40 40 73 73 285 285 97 97 103 103
 103 103 43 43 43 159 159 159 159 159 159 159 163 163 163 163 163 163 40 40
 40 190 73 73 73 73 97 97 103 103 103 103 43 43 43 388 388 388 159 159
 159 159 159 163 163 163 163 163 40 40 190 190 73 73 73 73 183 183 103 103
 103 103 43 43 43 388 388 388 388 159 159 159 159 163 163 163 163 163 163 40
 83 83 73 73 73 73 183 183 183 183 148 148 148 43 43 388 388 388 159 159
 159 23 23 23 23 163 163 163 163 181 83 83 83 73 237 237 183 183 183 183
 148 148 148 148 148 149 149 149 149 159 159 23 23 23 23 23 163 9 9 181
 83 83 83 237 237 237 237 183 183 183 148 148 148 148 149 149 149 149 149 149
 279 286 23 23 23 23 9 9 9 9 147 147 237 237 237 237 237 237 183 183
 148 148 148 311 149 149 149 149 149 149 279 286 286 286 286 286 9 9 9 9
 398 398 398 237 237 237 237 237 44 44 44 38 38 311 14 14 149 149 149 149
 279 286 286 286 286 286 110 110 110 9 398 398 398 237 237 237 237 44 44 44
 44 38 38 38 14 14 14 149 75 75 75 75 286 286 286 286 110 110 110 110
 398 398 398 237 237 237 237 44 44 44 44 44 38 38 14 14 14 75 75 75
 75 75 286 286 286 10 110 110 110 110 116 116 116 116 116 60 60 44 44 44
 44 214 214 214 202 75 75 75 75 75 75 75 75 184 10 10 31 31 31 116
 116 116 116 116 116 60 60 44 44 44 214 214 214 214 202 202 75 75 75 75
 75 75 75 184 184 31 31 31 31 116 116 116 116 116 116 177 13 44 44 214
 214 214 214 214 202 202 202 75 75 75 75 340 340 184 184 31 31 31 31 116
 116 116 116 116 116 177 13 13 13 214 214 214 214 214 180 180 180 75 340 340
 340 340 340 340 184 31 31 31 31 116 116 116 116 116 177 177 13 13 13 214
 214 214 214 180 180 180 180 180 340 340 340 340 340 340 340 31 31 31 31 116
 116 116 116 116 177 177 13 13 13 92 92 92 180 180 180 180 180 180 340 340
 340 340 340 340 340 340 417 417 417 116 78 116 116 335 177 177 173 173 173 92
 92 92 180 180 180 180 180 180 180 340 340 340 340 340 340 396 348 348 348 78
 78 78 78 335 335 373 173 173 173 92 92 92 180 180 180 180 180 180 339 339
 340 340 340 340 396 396 396 348 348 78 78 78 78 78 373 373 173 173 173 173
 92 92 180 180 180 180 180 339 339 339 339 340 340 396 396 396 396 396 396 78
 78 78 78 78 335 373 111 111 111 173 92 92 386 386 386 180 180 339 339 339
 339 323 323 396 396 396 396 396 396 78 78 78 78 78 335 111 111 111 111 111
 337 337 337 337 337 337 339 339 339 339 4 4 4 396 396 396 396 396 396 78
 78 78 78 247 247 111 111 111 111 111 337 337 337 337 337 337 142 142 142 142
 4 4 4 4 418 396 150 150 150 150 246 246 247 247 247 111 111 111 111 111
 337 337 337 337 337 337 142 142 142 142 142 4 4 4 418 150 150 150 150 150
 406 246 406 247 247 287 171 171 171 171 403 403 337 337 337 337 142 142 142 142
 135 135 135 135 135 150 150 150 150 150 17 17 17 17 287 287 287 171 287 287
 403 403 403 403 337 337 142 142 142 142 135 135 135 135 135 150 150 150 150 150
 17 17 17 17 287 287 287 287 287 287 403 403 403 403 403 142 142 142 142 142
 135 135 135 135 135 85 150 150 150 17 17 17 17 17 287 287 287 287 287 401
 401 403 403 403 403 32 32 32 32 32 375 375 375 375 85 85 85 85 85 17
 17 17 17 17 287 287 287 287 401 401 401 401 411 411 411 411 32 32 32 159
 159 375 375 163 163 85 85 85 85 85 17 17 17 285 285 285 287 287 401 401
 401 401 411 411 411 411 159 159 159 159 159 159 163 163 163 163 85 85 85 85
 40 17 17 285 285 285 285 401 401 401 401 401 411 411 411 411 159 159 159 159
 159 159 163 163 163 163 163 85 85 85 40 73 73 73 285 285 285 97 103 103
 103 103 411 43 411 159 159 159 159 159 159 159 163 163 163 163 163 163 85 40
 190 190 73 73 73 73 97 97 103 103 103 103 43 43 43 388 159 159 159 159
 159 159 163 163 163 163 163 163 163 40 190 190 73 73 73 73 183 183 183 103
 148 148 148 43 43 388 388 159 159 159 159 159 163 163 163 163 163 163 163 163
 83 83 73 73 73 73 183 183 183 148 148 148 148 148 148 307 307 307 159 159
 159 23 23 23 23 163 163 163 181 181 83 83 83 73 237 237 183 183 183 148
 148 148 148 148 148 307 307 307 159 159 159 23 23 23 23 23 163 181 181 181
 83 83 83 237 237 237 237 183 183 148 148 148 148 311 311 149 149 149 149 149
 204 23 23 23 23 23 9 9 9 181 345 345 345 237 237 237 237 237 183 148
 148 148 148 311 311 149 149 149 149 149 149 286 286 286 286 110 110 110 110 110
 126 126 126 237 237 237 237 237 44 38 38 38 38 311 311 149 149 149 149 149
 75 286 286 286 286 110 110 110 110 110 126 126 126 237 237 237 237 44 44 44
 38 38 38 38 311 14 149 149 75 75 75 75 286 286 286 110 110 110 110 110
 126 126 126 237 237 237 391 391 44 44 38 38 38 38 38 14 75 75 75 75
 75 75 75 10 10 10 110 110 110 110 260 116 116 116 116 237 391 391 44 44
 44 38 38 38 259 259 75 75 75 75 75 75 184 184 10 10 10 110 110 260
 116 116 116 116 116 391 391 391 391 44 214 214 214 119 119 259 75 75 75 75
 75 75 184 184 184 10 31 31 31 260 116 116 116 116 116 177 177 391 391 214
 214 214 214 119 119 119 75 75 75 75 75 75 184 184 184 31 31 31 31 31
 116 116 116 116 177 177 177 13 13 214 214 214 214 119 119 180 332 332 62 62
 62 340 184 184 184 31 31 31 31 31 116 116 116 116 177 177 177 13 13 214
 214 214 214 180 180 180 332 332 62 62 62 340 340 184 184 184 31 31 31 31
 193 116 116 177 177 177 13 13 13 92 92 92 92 180 180 180 332 332 62 62
 62 340 340 340 184 184 31 417 193 193 193 193 78 177 177 177 13 173 92 92
 92 92 92 180 180 180 180 332 332 340 340 340 340 340 340 348 348 348 193 193
 78 78 78 78 373 373 373 173 92 92 92 92 92 180 180 180 180 332 383 323
 323 323 323 323 348 348 348 348 348 193 78 78 78 78 373 373 373 373 92 92
 92 92 92 180 180 180 383 383 339 339 323 323 323 323 396 396 348 348 348 78
 78 78 78 78 373 373 373 111 111 92 92 92 337 337 337 6 6 383 339 323
 323 323 323 418 418 396 396 396 348 78 78 78 78 78 373 373 111 111 111 111
 390 337 337 337 337 337 6 142 142 142 323 323 323 418 418 418 396 396 396 78
 78 78 247 247 247 247 111 111 111 111 390 390 337 337 337 337 142 142 142 142
 135 135 135 418 418 418 150 150 150 150 78 247 247 247 247 247 111 111 111 390
 390 390 337 337 337 337 142 142 142 142 135 135 135 135 418 150 150 150 150 150
 267 267 267 247 247 247 171 171 171 171 390 390 403 337 337 337 142 142 142 39
 135 135 135 135 135 150 150 150 150 150 267 267 267 247 247 287 171 171 171 171
 390 403 403 403 403 337 142 142 142 39 135 135 135 135 135 150 150 150 150 150
 17 17 17 17 287 287 287 171 171 171 403 403 403 403 403 403 142 142 32 135
 135 135 135 135 135 169 169 169 169 17 17 17 17 17 287 287 287 287 287 401
 401 403 403 403 403 32 32 32 32 32 135 135 135 135 169 169 85 85 85 17
 17 17 17 17 287 287 287 287 401 401 401 401 63 63 63 63 32 32 32 32
 159 135 135 163 163 85 85 85 85 85 17 17 17 17 287 287 287 287 401 401
 401 401 63 63 63 63 32 32 32 159 159 159 163 163 163 163 85 85 85 85
 17 17 17 285 285 191 191 401 401 401 401 401 63 63 63 63 159 159 159 159
 159 159 163 163 163 163 163 85 85 85 40 73 73 73 191 191 191 191 401 401
 401 401 63 63 63 159 159 159 159 159 159 159 163 163 163 163 163 163 85 85
 190 190 73 73 73 191 191 191 103 103 103 212 212 212 212 212 159 159 159 159
 159 159 163 163 163 163 163 163 163 85 190 190 73 73 73 73 183 183 183 148
 148 148 212 212 212 212 307 159 159 159 159 159 163 163 163 163 163 163 163 181
 181 181 73 73 73 73 183 183 183 148 148 148 148 212 212 307 307 307 307 204
 204 204 51 51 23 163 163 181 181 181 181 181 83 73 237 237 183 183 183 148
 148 148 148 148 212 307 307 307 204 204 204 23 23 23 23 23 288 181 181 181
 181 345 345 237 237 237 237 183 183 148 148 148 148 311 311 307 307 307 204 204
 204 204 154 154 154 288 288 288 181 181 345 345 345 237 237 237 237 237 183 148
 148 148 311 311 311 149 149 149 149 204 204 263 154 154 154 110 110 110 110 181
 126 126 126 237 237 237 237 237 44 38 38 38 38 311 311 311 149 149 149 75
 263 263 263 154 154 110 110 110 110 110 126 126 126 237 237 237 237 391 391 38
 38 38 38 38 311 311 149 149 75 75 75 263 263 263 110 110 110 110 110 110
 126 126 126 126 237 237 391 391 391 38 38 38 38 38 259 259 259 75 75 75
 75 75 263 10 10 10 110 110 110 260 260 126 126 126 237 391 391 391 391 44
 38 38 38 38 259 259 259 75 75 75 75 75 184 184 10 10 10 110 260 260
 260 116 116 116 116 391 391 391 391 44 214 214 214 119 259 259 259 75 75 75
 75 75 184 184 184 10 10 31 260 260 116 116 116 116 177 177 177 391 391 214
 214 214 119 119 119 259 259 75 75 75 75 184 184 184 184 184 31 31 31 31
 215 215 215 116 177 177 177 13 13 214 214 214 405 119 405 332 332 332 62 62
 62 184 184 184 184 184 31 31 31 31 215 215 215 215 177 177 177 13 13 92
 214 214 405 405 405 332 332 332 62 62 62 62 184 184 184 184 31 31 31 193
 193 215 215 215 177 177 177 13 92 92 92 92 92 405 332 332 332 332 62 62
 62 62 340 184 184 242 348 193 193 193 193 215 215 215 177 177 177 92 92 92
 92 92 92 180 180 332 332 332 332 62 62 340 340 340 348 348 348 348 193 193
 193 78 78 78 373 373 373 373 92 92 92 92 92 180 180 332 332 383 383 383
 323 323 323 323 348 348 348 348 348 193 78 78 78 78 373 373 373 373 92 92
 92 92 92 92 6 6 383 383 383 383 323 323 323 323 396 348 348 348 348 78
 78 78 78 78 373 373 373 373 277 277 92 92 92 6 6 6 6 383 383 383
 323 323 323 418 418 418 348 348 348 78 78 78 78 78 373 373 373 111 277 277
 277 390 337 337 6 6 6 383 383 383 323 323 323 418 418 418 418 348 348 78
 78 78 247 247 247 247 111 111 277 277 390 390 390 337 337 6 6 142 142 142
 135 135 135 418 418 418 418 150 395 395 395 247 247 247 247 247 247 171 390 390
 390 390 390 337 337 37 37 142 142 39 135 135 135 135 418 418 150 150 395 395
 267 267 267 247 247 247 171 171 171 390 390 390 390 337 337 37 37 142 39 39
 135 135 135 135 418 150 150 150 395 395 267 267 267 247 247 171 171 171 171 171
 390 403 403 403 403 37 37 142 142 135 135 135 135 135 135 169 169 169 169 169
 267 267 267 17 329 329 171 171 171 171 171 403 403 403 403 200 200 200 200 135
 135 135 135 135 169 169 169 169 169 169 17 17 17 17 329 329 329 171 171 171
 171 403 63 63 63 63 200 32 32 32 135 135 135 135 169 169 169 169 169 169
 17 17 17 17 329 329 329 287 401 401 401 63 63 63 63 63 32 32 32 32
 135 135 135 135 169 169 169 169 85 85 17 17 17 329 329 329 329 287 401 401
 401 63 63 63 63 63 32 32 32 32 159 159 135 163 163 163 85 85 85 85
 233 199 199 199 191 191 191 287 401 401 401 63 63 63 63 63 32 32 32 159
 159 159 163 163 163 163 163 85 85 85 233 199 199 199 191 191 191 191 401 401
 401 63 63 63 63 63 159 159 159 159 159 159 163 163 163 163 163 163 85 233
 233 199 199 199 191 191 191 191 103 148 148 212 212 212 212 212 159 159 159 159
 159 159 51 163 163 163 163 163 163 233 181 199 73 73 73 73 183 183 183 148
 148 148 212 212 212 212 307 307 159 159 159 159 51 51 163 163 163 163 181 181
 181 181 73 73 73 54 54 54 54 148 148 148 148 212 212 46 307 307 204 204
 204 204 51 51 51 51 181 181 181 181 181 181 181 367 367 367 54 54 54 148
 148 148 148 148 212 307 307 307 204 204 204 204 51 51 51 288 288 181 181 181
 181 181 345 367 367 367 54 54 54 148 148 148 148 148 311 307 307 204 204 204
 204 204 154 154 154 288 288 288 181 181 181 345 345 367 367 367 367 237 54 148
 148 148 148 311 311 311 149 204 204 204 204 263 154 154 154 288 288 288 288 181
 126 126 126 367 124 124 124 237 38 38 38 38 38 311 311 311 149 149 204 263
 263 263 263 154 154 110 110 110 110 110 126 126 126 126 124 124 124 391 38 38
 38 38 38 38 38 259 259 149 75 263 263 263 263 263 154 110 110 110 110 110
 126 126 126 126 124 124 391 391 391 38 38 38 38 38 259 259 259 75 75 75
 263 263 263 263 10 10 110 110 110 260 260 126 126 126 124 124 391 391 391 44
 38 38 38 259 259 259 259 259 75 75 75 263 184 184 10 10 10 110 260 260
 260 215 215 215 124 391 391 391 391 391 214 214 405 259 259 259 259 259 75 75
 75 75 184 184 184 10 10 31 260 260 215 215 215 215 177 177 177 391 391 391
 214 405 405 119 259 259 259 259 75 75 75 184 184 184 184 184 242 31 31 215
 215 215 215 215 177 177 177 177 13 214 214 405 405 405 405 332 332 332 62 62
 62 184 184 184 184 242 242 242 215 215 215 215 215 215 177 177 177 177 92 92
 405 405 405 405 405 332 332 332 62 62 62 62 184 184 242 242 242 242 215 215
 215 215 215 215 177 177 177 177 92 92 92 92 405 405 332 332 332 332 62 62
 62 62 184 242 242 242 242 242 193 193 193 215 215 215 177 177 177 92 92 92
 92 92 92 405 332 332 332 332 332 62 62 323 323 242 242 348 348 348 193 193
 193 215 215 215 373 373 373 373 92 92 92 92 92 92 332 332 332 383 383 383
 323 323 323 323 348 348 348 348 348 193 78 78 78 78 373 373 373 373 92 92
 92 92 92 6 6 6 383 383 383 383 323 323 323 323 348 348 348 348 348 348
 78 78 78 78 373 373 373 373 277 277 277 92 6 6 6 6 6 383 383 383
 323 323 323 323 418 348 348 348 348 78 78 78 78 78 373 373 373 277 277 277
 277 277 6 6 6 6 6 383 383 383 323 323 323 418 418 418 418 348 348 395
 395 395 247 247 247 247 156 156 277 277 277 390 390 6 6 6 37 37 37 135
 135 135 135 418 418 418 418 395 395 395 395 395 247 247 247 247 156 156 156 390
 390 390 390 337 37 37 37 37 37 135 135 135 135 135 418 282 282 282 395 395
 395 267 247 247 247 397 397 397 397 397 390 390 390 337 37 37 37 37 37 135
 135 135 135 135 282 282 282 282 395 395 267 267 267 247 247 397 397 397 397 397
 368 368 368 368 37 37 37 37 37 135 135 135 135 135 169 169 169 169 169 395
 267 267 267 267 329 329 397 171 171 171 368 368 361 361 361 37 200 200 200 88
 135 135 135 135 169 169 169 169 169 121 121 17 17 329 329 329 329 171 171 171
 368 368 361 361 361 200 200 200 200 88 135 135 135 135 169 169 169 169 169 121
 121 17 17 329 329 329 329 329 401 401 401 63 63 63 63 200 200 32 32 32
 135 135 135 113 113 113 169 169 169 121 233 17 199 329 329 329 329 329 401 401
 401 63 63 63 63 63 32 32 32 32 159 269 269 113 113 113 113 169 169 233
 233 199 199 199 191 191 191 191 401 401 290 290 63 63 63 63 105 105 105 159
 159 269 269 269 113 113 113 233 233 233 233 199 199 199 191 191 191 191 201 290
 290 290 290 63 63 105 105 105 105 159 159 269 269 51 163 163 163 233 233 233
 233 199 199 199 191 191 191 191 201 290 290 290 290 212 212 46 105 105 105 159
 159 159 51 51 51 163 163 233 233 233 181 199 199 199 73 191 191 201 201 148
 148 148 148 212 212 46 307 307 204 204 204 51 51 51 51 163 163 181 181 181
 181 181 181 367 367 367 54 54 54 148 148 148 148 148 46 46 46 204 204 204
 204 204 51 51 51 51 51 181 181 181 181 181 181 367 367 367 54 54 54 148
 148 148 148 148 384 307 307 204 204 204 204 204 51 51 51 51 288 181 181 181
 181 181 367 367 367 367 54 54 54 148 148 148 148 384 384 384 204 204 204 204
 204 204 154 154 154 288 288 288 181 181 181 181 367 367 367 367 367 367 54 384
 384 384 384 384 384 384 122 204 204 204 204 263 154 154 154 288 288 288 288 181
 126 126 367 367 367 124 124 124 38 38 38 384 384 384 384 384 122 122 204 263
 263 263 263 154 154 288 288 288 288 288 126 126 126 367 124 124 124 124 38 38
 38 38 38 38 259 259 259 122 296 263 263 263 263 263 154 110 110 110 110 110
 126 126 126 124 124 124 124 391 391 38 38 38 38 259 259 259 259 259 296 296
 263 263 263 263 10 10 110 110 110 260 260 126 126 124 124 124 124 391 391 44
 38 38 259 259 259 259 259 259 296 296 296 263 263 263 10 10 10 110 260 260
 215 215 215 215 124 124 391 391 391 391 405 405 405 259 259 259 259 259 296 296
 296 296 184 184 184 10 10 172 260 260 215 215 215 215 215 177 177 391 391 405
 405 405 405 405 259 259 259 259 296 296 296 184 184 184 184 242 242 242 215 215
 215 215 215 215 215 177 177 177 177 405 405 405 405 405 405 259 259 259 416 416
 416 416 184 184 242 242 242 242 215 215 215 215 215 215 215 177 177 177 92 92
 405 405 405 405 405 332 332 332 416 416 416 416 184 242 242 242 242 242 215 215
 215 215 215 215 215 177 177 177 92 92 92 405 405 405 405 332 332 332 332 416
 416 416 242 242 242 242 242 242 215 215 215 215 215 215 215 177 177 92 92 92
 92 92 92 405 405 332 332 332 346 346 416 416 242 242 242 242 242 242 215 215
 215 215 215 215 373 373 373 355 92 92 92 92 92 405 6 332 383 383 383 383
 323 323 323 242 242 348 348 348 348 64 78 78 78 254 373 373 373 79 79 79
 79 92 92 6 6 6 383 383 383 383 323 323 323 160 160 160 348 348 348 64
 78 78 254 254 254 373 373 277 277 277 277 277 6 6 6 6 383 383 383 383
 323 323 323 160 160 160 348 348 348 64 395 78 254 254 254 254 277 277 277 277
 277 277 277 6 6 6 6 383 383 383 188 243 243 160 160 160 160 348 395 395
 395 395 254 254 254 254 156 156 277 277 277 277 368 6 6 6 37 37 37 188
 188 135 243 160 160 160 282 282 395 395 395 395 247 247 247 156 156 156 156 368
 368 368 368 368 37 37 37 37 37 37 135 135 135 135 282 282 282 282 395 395
 395 395 247 247 247 397 397 397 397 368 368 368 368 368 37 37 37 37 37 37
 135 135 135 135 282 282 282 282 395 395 395 395 267 247 397 397 397 397 397 327
 368 368 368 368 37 37 37 37 37 135 135 135 135 135 282 282 282 282 169 395
 121 267 267 329 329 329 397 397 327 327 368 368 361 361 361 37 200 200 200 88
 88 135 135 135 169 169 169 169 169 121 121 121 17 329 329 329 329 397 327 368
 368 368 361 361 361 200 200 200 200 88 88 135 135 135 169 169 169 169 121 121
 121 121 393 329 329 329 329 329 216 368 368 368 361 361 361 200 200 200 200 88
 88 135 135 113 113 113 169 169 169 121 233 233 393 393 393 329 329 216 216 290
 290 290 290 63 63 200 200 200 200 32 88 269 269 269 113 113 113 169 233 233
 233 233 199 393 393 393 393 216 216 290 290 290 290 290 63 105 105 105 105 105
 269 269 269 269 113 113 113 233 233 233 233 199 199 393 393 393 393 201 201 290
 290 290 290 290 290 105 105 105 105 105 159 269 269 269 51 113 113 233 233 233
 233 199 199 199 393 393 201 201 201 290 290 290 290 290 46 46 105 105 105 105
 159 269 51 51 51 51 163 233 233 233 181 199 199 393 393 393 201 201 201 290
 290 290 290 290 46 46 46 105 204 204 204 51 51 51 51 51 163 181 181 181
 181 181 181 367 367 367 201 201 201 201 148 290 290 148 46 46 46 204 204 204
 204 204 51 51 51 51 181 181 181 181 181 181 181 367 367 367 54 54 54 148
 384 384 384 384 384 46 122 204 204 204 204 204 51 51 51 288 288 181 181 181
 181 181 367 367 367 367 367 54 54 384 384 384 384 384 384 384 122 122 204 204
 204 204 154 154 154 288 288 288 181 181 181 181 367 367 367 367 367 367 54 384
 384 384 384 384 384 384 122 122 122 204 204 263 154 154 154 288 288 288 288 181
 181 181 367 367 367 367 367 367 384 384 384 384 384 384 384 384 122 122 122 263
 263 263 263 154 154 288 288 288 288 288 126 313 313 367 124 124 124 124 101 384
 384 384 384 384 384 259 122 122 296 296 263 263 263 263 154 288 288 288 288 288
 313 313 313 313 124 124 124 101 101 101 101 38 384 384 259 259 259 296 296 296
 296 263 263 263 172 172 172 172 110 260 215 215 215 313 124 124 101 101 101 101
 101 38 259 259 259 259 259 296 296 296 296 296 263 263 172 172 172 172 172 260
 215 215 215 215 215 124 101 101 101 101 101 405 405 259 259 259 259 259 296 296
 296 296 184 184 184 172 172 172 172 215 215 215 215 215 215 177 101 101 101 101
 405 405 405 405 259 259 259 259 296 296 296 296 184 242 242 242 242 172 215 215
 215 215 215 215 215 177 177 177 101 101 405 405 405 405 405 405 259 416 416 416
 416 416 184 242 242 242 242 242 215 215 215 215 215 215 215 177 177 355 355 92
 405 405 405 405 405 405 332 346 416 416 416 416 416 242 242 242 242 242 215 215
 215 215 215 215 215 55 355 355 355 92 387 387 405 405 405 346 346 346 346 416