# vtk DataFile Version 2.0
Data set from IO Version 6.4.197.9a0dee2
ASCII

DATASET RECTILINEAR_GRID
DIMENSIONS 31 31 31
X_COORDINATES 31 float
-3.250000 3.250000 9.750000 16.250000 22.750000 29.250000 35.750000 42.250000 48.750000 55.250000 61.750000 68.250000 74.750000 81.250000 87.750000 94.250000 100.750000 107.250000 113.750000 120.250000 126.750000 
133.250000 139.750000 146.250000 152.750000 159.250000 165.750000 172.250000 178.750000 185.250000 191.750000 
Y_COORDINATES 31 float
-3.250000 3.250000 9.750000 16.250000 22.750000 29.250000 35.750000 42.250000 48.750000 55.250000 61.750000 68.250000 74.750000 81.250000 87.750000 94.250000 100.750000 107.250000 113.750000 120.250000 126.750000 
133.250000 139.750000 146.250000 152.750000 159.250000 165.750000 172.250000 178.750000 185.250000 191.750000 
Z_COORDINATES 31 float
-3.250000 3.250000 9.750000 16.250000 22.750000 29.250000 35.750000 42.250000 48.750000 55.250000 61.750000 68.250000 74.750000 81.250000 87.750000 94.250000 100.750000 107.250000 113.750000 120.250000 126.750000 
133.250000 139.750000 146.250000 152.750000 159.250000 165.750000 172.250000 178.750000 185.250000 191.750000 
CELL_DATA 27000
SCALARS FeatureIds int 1
LOOKUP_TABLE default
 365 365 365 365 365 225 225 225 269 269 269 269 373 373 373 373 376 376 376 401
 401 401 401 401 270 270 330 330 330 330 365 365 365 365 279 279 279 269 269 269
 269 269 373 252 373 77 77 376 290 401 401 401 401 401 270 270 330 137 137 137
 365 365 365 176 279 279 279 279 269 269 269 269 373 252 77 77 77 10 290 401
 401 401 401 401 401 137 137 137 137 137 65 65 176 176 279 279 279 279 269 269
 269 269 77 77 77 77 10 10 10 10 401 401 401 401 26 26 137 137 137 137
 65 65 65 176 279 279 279 279 283 283 283 283 120 120 120 10 10 10 10 10
 401 401 401 26 26 26 26 137 137 137 65 65 70 94 279 279 178 178 283 283
 283 283 120 120 120 120 10 10 10 10 10 401 401 26 26 26 333 333 333 333
 70 70 70 94 94 313 313 178 283 283 283 283 120 120 120 120 120 10 10 10
 10 379 379 60 60 60 333 333 333 333 70 70 70 94 94 313 313 313 313 313
 283 120 120 120 120 120 120 120 10 10 10 379 379 379 60 60 60 333 333 70
 70 70 70 94 313 313 313 313 313 313 313 120 120 120 120 120 120 120 120 10
 379 379 379 379 379 60 60 42 42 70 70 70 70 70 313 313 313 313 313 313
 313 313 120 120 120 120 120 120 120 115 379 379 379 379 379 60 42 42 42 70
 70 70 70 70 313 313 313 313 313 313 313 313 404 120 120 120 120 120 115 115
 115 379 379 379 379 379 42 42 42 42 31 31 31 50 50 50 313 313 313 313
 404 404 404 404 120 120 81 81 115 115 115 115 379 301 301 301 42 42 42 100
 31 31 31 31 50 50 51 51 51 51 404 404 404 404 120 81 81 81 38 38
 115 115 97 97 97 301 100 100 100 100 100 31 31 31 50 50 51 51 51 51
 404 404 404 404 148 148 81 38 38 38 38 115 97 97 97 301 100 100 100 100
 100 31 31 50 50 50 51 51 51 51 404 404 404 148 148 148 148 38 38 38
 38 115 304 304 304 301 73 100 100 100 100 100 21 21 21 50 51 51 51 51
 381 404 404 148 148 148 148 38 38 208 208 208 304 304 304 304 73 100 100 100
 100 21 21 21 21 21 292 292 292 381 381 230 230 148 148 148 148 208 208 208
 208 255 255 255 255 255 192 192 192 100 21 21 21 21 21 21 292 292 292 381
 381 230 230 159 159 159 159 208 208 208 208 255 255 255 255 255 192 192 192 192
 161 21 21 21 21 21 292 292 292 381 381 381 381 159 159 159 159 208 208 208
 208 255 255 255 255 255 192 192 192 161 161 161 170 21 21 92 292 292 17 17
 381 381 381 159 159 159 159 159 208 208 208 255 255 255 255 255 192 192 192 161
 161 161 161 218 92 92 92 17 17 17 17 17 17 159 159 159 159 159 325 325
 325 325 255 255 255 255 161 161 161 161 161 161 218 218 92 92 92 17 17 17
 17 17 17 159 159 159 159 159 325 325 325 325 167 167 167 167 161 161 161 161
 161 161 218 218 92 92 92 92 17 17 17 17 121 121 121 159 159 49 325 325
 325 167 167 167 167 167 347 347 347 161 15 15 15 18 18 18 18 18 17 17
 35 35 121 121 121 121 49 49 49 49 49 167 167 167 167 167 347 347 347 15
 15 15 15 18 18 18 18 18 18 35 35 35 35 121 121 306 306 49 49 49
 49 167 167 167 167 167 347 347 347 15 15 15 15 18 18 18 18 18 18 260
 35 35 35 35 121 306 306 306 49 49 49 210 288 288 288 215 215 347 15 15
 15 15 15 18 18 18 18 18 260 260 35 35 35 75 75 75 306 49 49 49
 49 210 210 288 288 215 215 330 330 15 365 365 15 18 18 18 18 18 260 260
 260 35 373 373 75 75 376 49 49 49 210 210 210 210 288 330 330 330 330 330
 365 365 365 365 18 18 225 225 225 369 369 373 373 373 373 373 376 376 376 49
 210 210 210 210 270 270 330 330 330 330 365 365 365 365 365 225 225 225 225 369
 369 373 373 373 373 373 376 376 376 376 401 401 401 401 270 270 330 330 330 330
 365 365 365 365 228 228 225 225 369 369 369 373 373 373 373 373 376 376 376 401
 401 401 401 401 270 270 330 330 330 365 365 365 365 365 228 228 228 269 269 269
 269 269 373 373 373 77 77 77 376 401 401 401 401 401 401 137 137 137 137 137
 137 365 176 176 176 228 279 279 269 269 269 269 77 77 77 77 77 77 77 401
 401 401 401 401 401 137 137 137 137 137 137 6 176 176 176 279 279 279 269 269
 269 77 77 77 77 77 168 168 10 401 401 401 401 401 26 26 137 137 137 137
 65 6 176 176 176 279 279 279 283 283 283 283 77 77 77 77 168 168 10 10
 401 401 401 26 26 26 333 333 137 137 70 176 176 176 176 279 178 178 283 283
 283 283 120 120 120 120 120 10 10 10 10 232 27 26 26 26 333 333 333 333
 70 70 70 70 313 313 313 313 313 283 283 120 120 120 120 120 120 120 10 10
 10 232 27 27 27 60 333 333 333 333 70 70 70 70 313 313 313 313 313 313
 313 120 120 120 120 120 120 120 120 10 232 27 27 27 27 60 60 333 333 70
 70 70 70 70 313 313 313 313 313 313 313 337 337 120 120 120 120 120 120 120
 232 379 379 160 160 60 42 42 42 70 70 70 70 70 313 313 313 313 313 313
 313 337 337 120 120 120 120 120 120 115 115 379 160 160 160 160 42 42 42 42
 70 70 70 70 313 313 313 313 313 313 313 337 337 120 120 120 120 120 115 115
 115 115 160 160 301 301 42 42 42 42 70 70 70 50 50 50 313 313 313 313
 404 404 404 404 120 120 120 81 115 115 115 115 301 301 301 301 42 42 42 42
 100 31 31 50 50 50 50 51 51 51 404 404 404 404 404 81 81 115 115 115
 115 115 301 301 301 301 301 100 100 100 100 31 31 50 50 50 50 51 51 51
 404 404 404 404 404 148 81 38 38 38 115 115 301 301 301 301 100 100 100 100
 100 100 385 385 50 50 50 51 51 51 404 404 404 404 148 148 148 38 38 38
 38 115 304 304 304 301 73 100 100 100 100 21 21 21 21 50 51 51 51 381
 381 381 381 381 148 148 148 38 38 208 208 208 304 304 304 304 73 100 100 100
 100 21 21 21 21 21 292 292 292 381 381 381 381 381 148 148 148 208 208 208
 208 208 304 304 304 255 192 192 100 100 161 21 21 21 21 21 292 292 292 381
 381 381 381 381 159 159 159 208 208 208 208 208 255 255 255 255 192 192 192 161
 161 161 21 21 21 21 292 292 292 381 381 381 381 381 159 159 159 208 208 208
 208 208 255 255 255 255 192 192 192 161 161 161 161 21 21 21 292 292 17 17
 381 381 381 381 159 159 159 344 208 208 208 208 255 255 255 55 192 192 161 161
 161 161 161 218 218 92 92 17 17 17 17 17 381 381 159 159 159 344 344 325
 325 325 167 167 167 55 161 161 161 161 161 161 218 218 218 92 92 17 17 17
 17 17 381 381 159 159 159 344 325 325 325 325 167 167 167 167 161 161 161 161
 161 161 218 218 218 18 18 17 17 17 17 17 121 121 121 159 229 49 49 325
 325 167 167 167 167 167 347 347 347 161 15 15 15 18 18 18 18 18 17 17
 35 35 35 121 121 121 49 49 49 49 49 167 167 167 167 167 347 347 347 161
 15 15 15 18 18 18 18 18 18 35 35 35 35 35 121 49 49 49 49 49
 49 210 288 288 288 167 347 347 347 15 15 15 15 18 18 18 18 18 18 35
 35 35 35 35 35 306 49 49 49 49 49 210 288 288 288 215 215 347 15 15
 15 15 15 18 18 18 18 18 18 35 35 35 35 35 75 75 49 49 49 49
 210 210 210 288 288 215 61 330 15 15 365 365 15 18 18 18 18 18 18 369
 35 35 373 373 373 373 376 49 49 210 210 210 210 210 210 61 61 330 330 365
 365 365 365 365 18 18 225 225 369 369 369 373 373 373 373 373 376 376 376 210
 210 210 210 210 210 270 330 330 330 365 365 365 365 365 365 225 225 225 369 369
 369 373 373 373 373 373 376 376 376 376 401 401 401 210 270 270 330 330 330 365
 365 365 365 365 228 228 228 228 369 369 369 373 373 373 373 77 376 376 376 401
 401 401 401 401 401 270 330 330 330 365 365 365 365 176 228 228 228 228 269 269
 269 373 373 373 77 77 77 77 250 250 401 401 401 401 401 137 137 137 137 137
 6 6 176 176 176 228 228 228 228 269 125 77 77 77 77 77 77 77 77 401
 401 401 401 401 401 137 137 137 137 137 6 6 176 176 176 228 228 228 312 125
 125 77 77 77 77 77 77 77 77 401 401 401 401 401 26 26 137 137 137 137
 6 6 176 176 176 176 312 312 312 283 125 77 77 77 77 77 77 77 77 10
 401 401 401 26 26 26 333 333 137 137 6 6 176 176 176 176 312 312 312 283
 283 77 77 77 77 77 77 77 77 10 232 232 27 27 27 26 333 333 333 333
 70 70 70 70 176 313 313 312 312 283 353 120 120 120 120 120 120 120 120 10
 232 232 27 27 27 27 333 333 333 333 70 70 70 70 313 313 313 313 313 313
 313 120 120 120 120 120 120 120 120 232 232 232 27 27 27 27 333 333 333 70
 70 70 70 70 313 313 313 313 313 313 337 337 337 120 120 120 120 120 120 232
 232 232 27 27 27 27 42 42 42 70 70 70 70 70 313 313 313 313 313 313
 337 337 337 337 120 120 120 120 120 115 115 115 160 160 160 42 42 42 42 70
 70 70 70 70 231 231 313 313 313 313 313 337 337 337 120 120 120 120 115 115
 115 115 160 160 301 42 42 42 42 42 70 70 70 231 231 231 313 313 313 313
 313 404 404 337 120 120 120 115 115 115 115 115 115 301 301 301 42 42 42 42
 335 335 31 50 50 50 50 51 313 313 404 404 404 404 375 375 115 115 115 115
 115 115 115 301 301 301 301 335 335 335 335 335 385 385 50 50 50 51 51 51
 404 404 404 404 404 148 115 115 115 115 115 115 115 301 301 301 301 335 335 335
 335 385 385 385 385 50 50 51 51 381 404 404 404 381 381 148 148 38 38 115
 115 115 304 304 304 301 156 156 335 335 335 385 385 385 385 385 50 292 51 381
 381 381 381 381 381 148 148 38 38 208 208 208 304 304 304 304 156 156 335 335
 335 21 21 21 21 21 292 292 292 381 381 381 381 381 381 148 148 208 208 208
 208 208 304 304 304 156 156 156 156 335 161 21 21 21 21 21 292 292 292 381
 381 381 381 381 381 381 344 208 208 208 208 208 55 55 255 255 192 192 161 161
 161 161 21 21 21 21 292 292 292 381 381 381 381 381 381 159 344 344 344 208
 208 208 55 55 55 55 192 192 161 161 161 161 161 21 21 21 292 292 17 381
 381 381 381 381 381 344 344 344 344 208 208 55 55 55 55 55 55 161 161 161
 161 161 161 218 218 92 92 17 17 17 17 381 381 381 159 344 344 344 344 208
 55 55 55 55 55 55 55 161 161 161 161 161 161 218 218 92 92 17 17 17
 17 17 381 381 113 229 229 344 344 325 55 55 55 55 55 55 55 161 161 161
 161 161 161 218 218 18 18 17 17 17 17 17 113 113 113 229 229 229 49 49
 55 55 55 55 55 55 347 347 161 161 161 15 15 18 18 18 18 18 17 17
 35 35 113 113 113 113 49 49 49 49 49 55 167 167 167 167 347 347 347 161
 15 15 15 18 18 18 18 18 18 35 35 35 35 113 113 113 49 49 49 49
 49 210 210 288 288 288 347 347 15 15 15 15 15 18 18 18 18 18 18 35
 35 35 35 35 113 49 49 49 49 49 210 210 210 288 288 61 61 61 15 15
 15 15 15 18 18 18 18 18 18 35 35 35 35 35 124 124 49 49 49 49
 210 210 210 210 288 61 61 61 61 15 365 365 15 18 18 18 18 18 18 369
 35 35 35 373 124 124 124 49 49 210 210 210 210 210 210 61 61 61 61 365
 365 365 365 365 18 18 18 18 369 369 369 373 373 373 373 124 376 376 376 210
 210 210 210 210 210 61 61 61 61 365 365 365 365 365 228 228 228 225 369 369
 369 373 373 373 373 373 376 376 376 210 210 210 210 210 210 61 61 61 61 365
 365 365 365 228 228 228 228 228 39 39 39 373 373 373 77 77 77 77 250 250
 250 401 401 401 401 9 9 137 365 365 365 365 176 176 228 228 228 228 39 39
 39 77 77 77 77 77 77 77 250 250 250 401 401 401 401 137 137 137 137 137
 6 6 176 176 176 228 228 228 125 125 125 125 77 77 77 77 77 77 77 250
 401 401 401 401 221 137 137 137 137 137 6 6 176 176 176 228 228 228 125 125
 125 125 77 77 77 77 77 77 77 250 401 401 401 221 221 349 349 137 137 137
 6 6 176 176 176 176 312 312 312 125 125 125 77 77 77 77 77 77 77 77
 232 232 232 27 349 349 349 349 349 349 6 6 176 176 176 176 312 312 312 125
 353 353 77 77 77 77 77 77 77 232 232 232 232 27 27 349 349 349 349 349
 70 70 70 370 370 370 312 312 312 353 353 353 353 120 120 120 120 120 120 232
 232 232 27 27 27 349 349 349 349 349 70 70 70 70 370 370 370 313 313 313
 353 353 353 120 120 120 120 120 120 232 232 232 27 27 27 27 349 349 349 349
 70 70 70 70 370 370 313 313 313 313 353 337 337 337 120 120 120 120 120 232
 232 232 27 27 27 27 349 349 42 70 70 70 70 70 313 313 313 313 313 313
 337 337 337 337 120 120 120 120 120 115 232 232 232 27 391 391 391 391 42 70
 70 70 70 275 231 231 231 313 313 313 337 337 337 337 120 120 120 120 115 115
 115 115 115 391 391 391 391 391 42 42 335 70 275 275 231 231 231 313 313 128
 128 337 337 337 375 375 375 115 115 115 115 115 115 391 391 391 391 391 391 335
 335 335 275 275 231 231 231 51 313 128 404 404 404 404 375 375 375 115 115 115
 115 115 115 391 391 391 391 391 335 335 335 335 385 385 385 50 50 51 51 404
 404 404 404 404 375 375 375 115 115 115 115 115 115 391 391 391 391 335 335 335
 335 335 385 385 385 385 50 51 381 381 381 381 381 381 381 381 89 115 115 115
 115 115 115 45 45 391 156 156 335 335 335 385 385 385 385 385 50 292 381 381
 381 381 381 381 381 381 89 89 38 208 208 115 45 45 45 45 156 156 335 335
 335 385 385 385 385 385 292 292 381 381 381 381 381 381 381 381 89 344 208 208
 208 208 45 45 45 156 156 156 156 335 161 385 385 21 21 21 292 292 381 381
 381 381 381 381 381 381 344 344 344 208 208 208 55 55 55 55 156 156 156 161
 161 161 21 21 21 21 292 292 381 381 381 381 381 381 381 344 344 344 344 344
 208 55 55 55 55 55 55 161 161 161 161 161 161 108 21 21 292 381 381 381
 381 381 381 381 381 344 344 344 344 344 55 55 55 55 55 55 55 161 161 161
 161 161 161 161 218 92 92 17 381 381 381 381 381 381 381 344 344 344 344 344
 55 55 55 55 55 55 55 161 161 161 161 161 161 161 218 92 92 17 17 17
 17 17 381 381 229 229 229 229 344 55 55 55 55 55 55 55 55 161 161 161
 161 161 161 218 218 18 18 17 17 17 17 17 113 113 113 229 229 229 229 55
 55 55 55 55 55 55 55 161 161 161 161 161 15 18 18 18 18 18 18 17
 35 35 113 113 113 229 229 229 49 49 55 55 55 55 55 55 55 161 161 161
 15 15 15 18 18 18 18 18 18 23 35 35 113 113 113 113 49 49 49 49
 210 210 210 210 55 55 347 165 165 15 15 15 15 18 18 18 18 18 18 23
 35 35 35 35 113 49 49 49 49 210 210 210 210 210 210 61 61 61 15 15
 15 15 15 18 18 18 18 18 18 23 23 35 35 35 124 124 124 49 49 210
 210 210 210 210 210 61 61 61 61 15 365 365 71 71 18 18 18 18 39 39
 39 35 35 373 124 124 124 49 210 210 210 210 210 210 210 61 61 61 61 61
 365 365 365 71 18 18 18 39 39 39 39 373 373 373 124 124 124 376 210 210
 210 210 210 210 210 61 61 61 61 61 365 365 365 365 228 228 228 39 39 39
 39 373 373 373 373 373 376 376 376 210 210 210 210 210 210 61 61 61 61 365
 365 365 365 228 228 228 228 39 39 39 39 39 373 77 77 77 77 22 22 22
 22 210 210 210 340 9 9 9 9 365 365 365 176 176 228 228 228 228 39 39
 125 125 77 77 77 77 77 77 22 22 22 22 401 401 221 9 9 9 9 9
 6 6 176 176 176 228 228 125 125 125 125 125 77 77 77 77 77 77 22 22
 22 22 221 221 221 221 9 9 9 137 6 6 176 176 176 176 228 125 125 125
 125 125 77 77 77 77 77 77 77 22 22 22 221 221 221 349 349 349 349 349
 6 6 176 176 176 176 312 312 125 125 125 125 77 77 77 77 77 77 77 232
 232 232 232 221 221 349 349 349 349 349 349 6 176 176 176 370 312 312 312 125
 353 353 353 77 77 77 77 77 77 232 232 232 232 232 27 349 349 349 349 349
 70 70 176 370 370 370 370 312 312 353 353 353 353 353 77 77 77 77 232 232
 232 232 232 27 27 349 349 349 349 349 70 70 70 370 370 370 370 370 313 353
 353 353 353 353 120 120 120 120 232 232 232 232 232 27 27 27 349 349 349 349
 70 70 70 370 370 370 370 370 313 353 353 353 353 353 120 120 120 120 232 232
 232 232 232 27 27 391 391 349 349 349 70 70 70 370 370 370 370 313 313 313
 353 337 337 337 120 120 120 120 96 232 232 232 232 232 391 391 391 391 391 70
 70 70 275 275 275 231 231 313 128 128 128 337 337 337 375 375 375 375 96 96
 96 232 232 391 391 391 391 391 391 391 335 275 275 275 275 231 231 128 128 128
 128 337 337 375 375 375 375 375 96 96 115 115 391 391 391 391 391 391 391 391
 335 275 275 275 275 231 231 128 128 128 128 404 404 375 375 375 375 375 96 115
 115 115 115 391 391 391 391 391 391 335 335 335 102 102 385 385 50 128 128 128
 404 404 404 381 375 375 375 89 115 115 115 115 118 118 391 391 391 391 335 335
 335 335 385 385 385 385 50 51 381 381 381 381 381 381 381 89 89 89 89 115
 115 115 45 45 45 391 391 335 335 335 335 385 385 385 385 385 385 386 386 381
 381 381 381 381 381 89 89 89 89 89 115 45 45 45 45 45 156 156 335 335
 335 385 385 385 385 385 386 386 386 381 381 381 381 381 381 89 89 89 89 89
 208 45 45 45 45 45 156 156 335 335 161 385 385 385 385 385 386 386 386 381
 381 381 381 381 381 381 344 344 344 208 208 55 55 55 55 55 55 156 335 335
 161 161 108 108 108 21 386 386 386 381 381 381 381 381 381 344 344 344 344 344
 55 55 55 55 55 55 55 55 127 127 161 161 108 108 108 108 386 386 381 381
 381 381 381 381 381 344 344 344 344 344 55 55 55 55 55 55 55 55 127 127
 161 161 108 108 108 108 386 105 105 105 381 381 381 381 381 229 344 344 344 344
 55 55 55 55 55 55 55 55 161 161 161 161 161 108 108 108 105 105 105 105
 105 381 381 381 229 229 229 229 344 55 55 55 55 55 55 55 55 55 161 161
 161 374 374 374 400 400 400 105 105 105 105 105 113 113 113 229 229 229 229 55
 55 55 55 55 55 55 55 55 161 161 374 374 374 374 18 400 400 18 105 105
 23 113 113 113 113 229 229 229 229 239 55 55 55 55 55 55 55 165 165 165
 165 374 374 18 18 400 400 72 23 23 23 23 113 113 113 229 229 49 49 210
 210 210 210 55 55 55 55 165 165 165 165 15 15 71 18 18 18 72 23 23
 23 23 23 113 113 124 49 49 210 210 210 210 210 210 55 61 61 61 165 165
 15 71 71 71 71 18 18 72 23 23 23 23 35 124 124 124 124 49 210 210
 210 210 210 210 210 61 61 61 61 61 365 71 71 71 71 71 18 39 39 39
 39 39 35 124 124 124 124 124 210 210 210 210 210 210 210 61 61 61 61 61
 365 71 71 71 71 71 39 39 39 39 39 39 373 373 124 124 124 376 210 210
 210 210 210 210 210 210 61 61 61 61 365 365 365 365 228 228 228 39 39 39
 39 39 373 373 373 124 376 376 22 22 210 210 210 210 210 153 61 61 61 61
 365 365 365 228 228 228 157 157 39 39 39 39 39 58 77 77 77 22 22 22
 22 22 210 340 340 340 9 9 9 9 365 365 176 176 228 228 157 157 157 125
 125 125 58 58 58 77 77 22 22 22 22 22 22 340 340 340 9 9 9 9
 6 6 176 176 176 228 157 157 125 125 125 125 58 58 58 77 77 77 22 22
 22 22 221 221 221 340 9 9 9 9 6 6 176 176 176 176 157 125 125 125
 125 125 58 58 77 77 77 77 22 22 22 22 221 221 221 349 349 349 349 349
 349 6 176 176 176 176 312 125 125 125 125 125 77 77 77 77 77 77 77 232
 232 232 221 221 221 349 349 349 349 349 349 349 176 176 370 370 370 125 125 125
 353 353 353 77 77 77 77 77 232 232 232 232 232 232 232 349 349 349 349 349
 349 349 370 370 370 370 370 370 312 353 353 353 353 353 77 77 77 77 232 232
 232 232 232 232 232 349 349 349 349 349 296 296 370 370 370 370 370 370 370 353
 353 353 353 353 120 120 120 120 232 232 232 232 232 232 232 349 349 349 349 349
 296 296 370 370 370 370 370 370 313 353 353 353 353 353 120 120 120 120 232 232
 232 232 232 232 232 391 391 62 349 349 296 296 370 370 370 370 370 370 128 128
 353 353 353 353 375 375 375 96 96 232 232 232 232 232 391 391 391 62 62 62
 352 352 275 275 275 275 370 128 128 128 128 128 337 375 375 375 375 96 96 96
 96 232 232 391 391 391 391 391 62 62 352 352 275 275 275 275 231 128 128 128
 128 128 128 375 375 375 375 375 96 96 96 96 391 391 391 391 391 391 391 391
 335 352 102 275 275 275 128 128 128 128 128 128 375 375 375 375 375 375 96 96
 96 115 118 118 391 391 391 391 391 335 335 335 102 102 102 102 128 128 403 403
 403 381 381 375 375 375 89 89 89 96 115 115 118 118 118 391 391 391 335 335
 335 43 43 102 43 43 43 403 403 403 381 381 381 381 89 89 89 89 89 89
 115 45 45 45 45 391 391 391 335 335 335 43 43 43 43 43 386 386 386 381
 381 381 381 381 89 89 89 89 89 89 89 45 45 45 45 45 156 156 335 335
 335 43 43 43 43 43 386 386 386 386 381 381 381 381 381 89 89 89 89 89
 89 45 45 45 45 45 156 156 335 335 335 43 43 43 43 43 386 386 386 386
 381 381 381 381 381 89 89 89 89 89 89 55 55 55 55 55 55 156 335 335
 127 108 108 108 108 108 386 386 386 386 381 381 381 381 261 261 261 344 344 89
 217 55 55 55 55 55 55 55 127 127 127 108 108 108 108 108 386 386 386 381
 381 381 381 381 261 261 261 344 344 217 217 55 55 55 55 55 55 55 127 127
 127 108 108 108 108 108 386 386 105 105 105 381 381 381 261 261 261 344 344 55
 55 55 55 55 55 55 55 55 127 127 161 374 374 108 108 108 105 105 105 105
 105 381 381 381 261 229 229 229 229 55 55 55 55 55 55 55 55 55 161 161
 374 374 374 374 400 400 400 105 105 105 105 105 113 113 113 229 229 229 229 239
 239 55 55 55 55 55 55 55 165 165 374 374 374 374 400 400 400 72 72 23
 23 23 113 113 113 229 229 229 239 239 239 239 55 55 55 55 55 165 165 165
 165 374 374 374 400 400 400 72 72 23 23 23 23 113 262 262 262 262 239 239
 239 239 239 239 55 55 55 165 165 165 165 374 71 71 71 400 72 72 23 23
 23 23 23 262 262 262 262 262 239 239 239 239 239 239 239 240 61 165 165 165
 165 71 71 71 71 72 72 72 23 23 23 23 23 262 262 262 262 262 210 210
 210 210 210 210 210 240 61 61 165 165 71 71 71 71 71 71 72 72 39 39
 23 23 23 222 124 262 124 124 210 210 210 210 210 210 210 153 61 61 61 61
 71 71 71 71 71 71 157 39 39 39 39 39 39 222 124 124 124 53 210 210
 210 210 210 210 210 153 153 153 61 61 71 71 71 71 71 71 157 39 39 39
 39 39 39 222 373 124 53 53 22 22 22 210 210 210 153 153 153 153 61 61
 86 86 86 228 228 157 157 157 157 39 39 39 39 58 58 77 53 53 22 22
 22 22 340 340 340 340 340 9 9 9 86 86 86 176 157 157 157 157 157 157
 125 125 58 58 58 58 77 22 22 22 22 22 340 340 340 340 9 9 9 9
 86 6 176 176 339 339 157 157 157 125 125 125 58 58 58 58 77 22 22 22
 22 22 221 340 340 340 340 9 9 9 6 6 176 176 339 339 157 157 125 125
 125 125 58 58 58 58 77 77 22 22 22 22 221 221 221 349 349 349 349 349
 349 226 226 226 226 339 339 125 125 125 125 125 58 58 77 77 77 77 199 199
 232 232 232 221 221 349 349 349 349 349 349 226 226 226 226 370 370 125 125 125
 353 353 353 353 77 77 77 77 199 199 232 232 232 232 232 349 349 349 349 349
 296 296 226 226 370 370 370 370 125 353 353 353 353 353 209 209 209 209 232 232
 232 232 232 232 232 349 349 349 349 349 296 296 226 370 370 370 370 370 370 353
 353 353 353 353 209 209 209 209 232 232 232 232 232 232 232 349 349 349 349 296
 296 296 296 370 370 370 370 370 370 353 353 353 353 353 209 209 209 209 232 232
 232 232 232 232 232 62 62 62 62 296 296 296 352 370 370 370 370 370 128 353
 353 353 353 353 375 375 375 96 96 232 232 232 232 232 391 391 62 62 62 62
 352 352 352 275 275 370 366 366 128 128 128 128 353 375 375 375 375 96 96 96
 96 232 232 391 391 391 391 62 62 62 352 352 352 275 275 275 366 366 128 128
 128 128 375 375 375 375 375 96 96 96 96 96 391 391 391 391 391 391 62 62
 352 352 352 102 275 366 366 366 128 128 128 128 375 375 375 375 375 89 96 96
 96 96 118 391 391 391 391 391 391 391 74 43 43 102 43 43 366 403 403 403
 403 403 20 20 375 89 89 89 89 89 96 96 118 118 391 391 391 391 74 74
 74 43 43 43 43 43 43 403 403 403 403 381 381 89 89 89 89 89 89 89
 89 89 45 45 45 391 391 74 74 74 74 43 43 43 43 43 386 386 403 403
 381 381 381 381 89 89 89 89 89 89 89 45 45 45 45 45 391 74 74 74
 74 43 43 43 43 43 386 386 386 386 381 381 381 381 89 89 89 89 89 89
 89 89 45 45 45 45 74 74 74 74 74 43 43 43 43 43 386 386 386 386
 381 381 381 381 89 89 89 89 89 89 217 217 217 55 55 55 55 74 74 74
 127 43 108 108 108 43 386 386 386 386 381 381 381 261 261 261 261 89 89 217
 217 217 217 55 55 55 55 55 127 127 127 108 108 108 108 108 386 386 386 386
 381 381 381 261 261 261 261 261 89 217 217 217 217 55 55 55 55 55 127 127
 127 127 108 108 108 108 106 106 105 105 105 381 381 261 261 261 261 261 261 217
 217 217 217 55 55 55 55 55 127 127 161 374 108 108 108 257 106 106 105 105
 105 105 29 261 261 261 261 261 261 217 217 217 55 55 55 55 55 55 127 161
 374 374 374 374 257 400 106 106 106 105 105 105 29 29 261 229 229 229 239 239
 239 239 55 55 55 55 55 55 165 165 374 374 374 374 400 400 72 72 72 23
 23 23 23 262 262 262 262 262 239 239 239 239 239 239 55 55 55 165 165 165
 374 374 374 374 400 400 72 72 72 23 23 23 23 262 262 262 262 262 239 239
 239 239 239 239 240 240 240 165 165 165 165 374 71 71 72 72 72 72 72 23
 23 23 23 262 262 262 262 262 262 239 239 239 239 239 240 240 240 165 165 165
 165 71 71 71 71 72 72 72 23 23 23 23 222 222 262 262 262 262 239 239
 239 239 239 239 240 240 240 61 165 165 71 71 71 71 71 72 72 72 39 23
 23 23 222 222 222 262 262 53 53 239 239 239 239 239 240 240 240 61 61 61
 71 71 71 71 71 71 157 39 39 39 39 39 222 222 222 262 53 53 53 210
 210 210 210 340 340 153 153 153 153 90 90 71 71 71 71 157 157 157 39 39
 39 39 39 222 222 53 53 53 53 22 22 210 210 340 340 153 153 153 153 90
 86 86 86 86 157 157 157 157 157 157 155 155 155 58 58 53 53 53 53 22
 22 22 340 340 340 340 340 9 357 357 86 86 86 86 157 157 157 157 157 157
 155 155 58 58 58 58 53 53 22 22 22 22 340 340 340 340 340 84 357 357
 86 86 86 339 339 339 157 157 157 157 125 125 58 58 58 58 274 274 22 22
 22 22 340 340 340 340 340 84 84 357 86 226 226 176 339 339 339 157 157 125
 125 125 58 58 58 58 274 274 274 22 22 340 340 340 340 340 349 349 349 349
 296 226 226 226 226 339 339 157 125 125 125 125 58 58 77 77 77 274 199 199
 199 232 232 221 340 349 349 349 349 349 296 226 226 226 226 226 370 157 125 125
 353 353 353 353 209 77 209 199 199 199 199 232 232 232 232 349 349 349 349 349
 296 296 226 226 226 370 370 370 152 353 353 353 353 353 209 209 209 209 199 199
 232 232 232 232 232 349 349 349 296 296 296 296 296 370 370 370 370 152 152 353
 353 353 353 353 209 209 209 209 232 232 232 232 232 232 232 349 62 62 296 296
 296 296 296 370 370 370 370 152 152 353 353 353 353 353 209 209 209 209 232 232
 232 232 232 232 232 62 62 62 62 296 296 296 296 370 370 366 366 366 366 366
 353 353 353 353 209 375 209 96 96 232 232 232 52 52 391 62 62 62 62 62
 352 352 352 352 366 366 366 366 366 366 128 353 171 375 375 375 375 96 96 96
 96 232 52 52 391 391 62 62 62 62 352 352 352 352 275 366 366 366 366 366
 128 171 171 375 375 375 375 96 96 96 96 96 391 391 391 391 391 62 62 352
 352 352 352 43 43 366 366 366 366 403 403 403 20 20 375 375 89 89 89 96
 96 96 338 391 391 391 391 391 391 352 74 43 43 43 43 43 366 366 403 403
 403 403 20 20 20 89 89 89 89 89 89 338 338 338 338 391 391 391 74 74
 74 43 43 43 43 43 366 403 403 403 403 203 20 20 20 89 89 89 89 89
 89 338 338 338 338 391 391 74 74 74 74 43 43 43 43 43 43 403 403 403
 403 203 20 20 89 89 89 89 89 89 89 89 45 45 45 45 74 74 74 74
 74 43 43 43 43 43 386 386 386 386 381 203 381 20 89 89 89 89 89 89
 89 89 45 45 45 45 74 74 74 74 74 43 43 43 43 43 386 386 386 386
 381 381 381 261 261 89 89 89 89 89 217 217 217 217 55 55 55 74 74 74
 127 43 43 43 43 43 386 386 386 386 381 381 381 261 261 261 261 89 89 217
 217 217 217 217 55 55 55 149 127 127 127 257 257 257 257 257 386 386 386 386
 381 381 381 261 261 261 261 261 89 217 217 217 217 217 55 55 55 55 127 127
 127 257 257 257 257 257 106 106 106 106 106 29 29 29 261 261 261 261 261 217
 217 217 217 55 55 55 55 55 127 127 166 257 257 257 257 257 106 106 106 106
 106 29 29 29 29 261 261 261 336 217 217 217 217 55 55 177 177 55 166 166
 166 374 184 184 257 257 106 106 106 106 106 87 29 29 29 261 261 261 239 239
 239 239 239 55 55 177 177 166 166 166 166 374 184 184 184 72 72 72 106 106
 87 87 87 262 262 262 262 262 239 239 239 239 239 239 55 55 240 166 166 166
 166 374 184 184 72 72 72 72 72 23 23 23 23 262 262 262 262 262 262 239
 239 239 239 239 240 240 240 166 166 166 165 374 184 184 72 72 72 72 72 23
 23 23 23 262 262 262 262 262 262 239 239 239 239 239 240 240 240 165 166 166
 90 90 71 95 95 72 72 72 72 23 23 23 222 222 262 262 262 262 262 239
 239 239 239 239 240 240 240 240 166 166 90 90 71 71 95 95 95 72 23 23
 23 205 222 222 222 262 262 53 53 239 239 239 239 239 240 240 240 240 90 90
 90 90 71 95 95 95 95 157 155 155 155 155 222 222 222 53 53 53 53 53
 239 239 340 340 340 340 153 153 90 90 90 90 71 95 95 157 157 157 157 155
 155 155 222 222 222 53 53 53 53 53 22 239 340 340 340 340 340 153 90 90
 86 86 86 86 95 157 157 157 157 155 155 155 155 58 58 53 53 53 53 22
 388 388 340 340 340 340 340 84 357 357 357 86 86 86 157 157 157 157 157 155
 155 155 58 58 58 274 274 274 274 274 22 340 340 340 340 340 340 84 357 357
 357 86 86 86 339 339 157 157 157 157 155 155 58 58 58 274 274 274 274 274
 22 340 340 340 340 340 84 84 84 357 357 86 226 339 339 339 157 157 157 157
 125 131 58 58 58 274 274 274 274 274 274 340 340 340 340 340 84 84 84 84
 296 226 226 226 226 339 339 157 157 157 125 131 58 58 77 274 274 274 274 199
 199 232 340 340 340 84 84 84 84 84 296 226 226 226 226 226 152 152 152 152
 353 353 353 209 209 209 274 274 199 199 199 232 232 232 232 305 305 85 85 296
 296 296 226 226 226 370 152 152 152 152 353 353 353 209 209 209 209 274 40 199
 232 232 232 232 232 305 305 296 296 296 296 296 296 226 370 152 152 152 152 152
 353 237 237 353 209 209 209 209 40 40 40 232 232 52 52 62 62 296 296 296
 296 296 296 296 370 152 152 152 152 152 237 237 237 237 209 209 209 209 40 40
 40 232 52 52 52 62 62 62 296 296 296 296 296 296 366 366 366 366 366 366
 171 237 237 309 309 309 309 309 40 232 232 52 52 52 52 62 62 62 62 296
 352 352 352 297 297 366 366 366 366 366 171 171 171 171 309 309 309 309 129 129
 129 52 52 52 52 62 62 62 62 62 352 352 352 297 297 366 366 366 366 366
 171 171 171 171 375 309 309 129 129 129 129 129 52 52 52 391 204 204 204 204
 352 352 352 297 297 366 366 366 366 366 171 171 171 20 20 89 89 89 129 129
 129 338 338 338 338 391 204 204 204 204 74 297 43 43 43 366 366 366 366 403
 171 171 20 20 20 89 89 89 89 89 89 338 338 338 338 338 204 204 204 204
 74 43 43 43 43 43 366 403 403 403 203 203 20 20 20 89 89 89 89 89
 89 338 338 338 338 338 204 204 74 74 74 43 43 43 43 43 43 246 403 203
 203 203 203 20 20 89 89 89 89 89 89 338 338 338 338 338 204 74 74 74
 74 43 43 43 43 43 246 246 246 203 203 203 203 203 89 89 89 89 89 89
 89 89 338 45 338 338 74 74 74 74 74 43 43 43 43 43 246 246 246 246
 203 203 203 261 261 89 89 89 89 89 217 217 217 217 55 149 149 149 149 74
 127 257 257 257 257 43 246 246 246 386 321 321 321 261 261 261 261 89 89 217