# vtk DataFile Version 2.0
Data set from IO Version 6.4.197.9a0dee2
ASCII

DATASET RECTILINEAR_GRID
DIMENSIONS 31 31 31
X_COORDINATES 31 float
-3.250000 3.250000 9.750000 16.250000 22.750000 29.250000 35.750000 42.250000 48.750000 55.250000 61.750000 68.250000 74.750000 81.250000 87.750000 94.250000 100.750000 107.250000 113.750000 120.250000 126.750000 
133.250000 139.750000 146.250000 152.750000 159.250000 165.750000 172.250000 178.750000 185.250000 191.750000 
Y_COORDINATES 31 float
-3.250000 3.250000 9.750000 16.250000 22.750000 29.250000 35.750000 42.250000 48.750000 55.250000 61.750000 68.250000 74.750000 81.250000 87.750000 94.250000 100.750000 107.250000 113.750000 120.250000 126.750000 
133.250000 139.750000 146.250000 152.750000 159.250000 165.750000 172.250000 178.750000 185.250000 191.750000 
Z_COORDINATES 31 float
-3.250000 3.250000 9.750000 16.250000 22.750000 29.250000 35.750000 42.250000 48.750000 55.250000 61.750000 68.250000 74.750000 81.250000 87.750000 94.250000 100.750000 107.250000 113.750000 120.250000 126.750000 
133.250000 139.750000 146.250000 152.750000 159.250000 165.750000 172.250000 178.750000 185.250000 191.750000 
CELL_DATA 27000
SCALARS FeatureIds int 1
LOOKUP_TABLE default
 79 79 79 79 90 90 90 90 90 90 90 276 276 276 276 273 273 141 141 141
 141 141 165 165 165 317 317 317 352 79 79 79 79 357 90 90 90 90 90 90
 90 325 276 276 273 273 273 141 141 141 141 141 165 165 317 317 317 352 352 352
 79 79 357 357 357 90 90 90 90 90 325 325 325 325 273 273 273 141 141 141
 141 141 246 246 246 317 317 317 352 352 352 357 357 357 357 90 90 90 90 90
 325 325 325 325 120 120 120 141 141 141 141 141 246 246 246 246 317 317 352 352
 241 357 357 357 357 90 90 90 90 325 325 325 325 146 84 84 84 141 141 141
 214 214 246 246 246 173 173 173 113 231 241 241 241 241 357 90 90 332 332 332
 146 146 146 146 84 84 84 84 141 214 214 214 214 246 173 173 113 113 113 231
 241 241 241 241 241 98 98 98 332 332 355 355 355 146 84 84 84 84 84 179
 179 179 179 179 173 113 113 113 231 231 241 241 241 241 304 98 98 98 332 332
 355 355 355 373 373 373 373 373 373 179 179 179 179 179 173 113 113 113 113 231
 241 241 241 304 304 304 332 332 332 332 355 355 355 373 373 373 373 373 39 179
 179 179 179 179 179 113 113 113 113 231 160 160 304 304 304 348 105 105 105 332
 355 355 355 373 373 373 373 373 39 39 179 179 179 378 378 113 113 113 113 181
 160 160 348 348 348 348 348 105 105 249 249 249 373 373 373 373 373 373 39 39
 39 378 378 378 378 378 59 181 181 181 181 160 348 348 348 348 348 105 249 249
 249 249 354 354 354 373 373 373 39 39 39 378 378 378 378 378 59 59 181 181
 181 160 348 348 348 348 348 103 103 249 249 249 354 354 354 354 373 109 109 39
 378 378 378 378 378 378 59 181 181 181 181 160 160 348 348 348 103 103 103 103
 249 354 354 354 354 354 109 109 109 109 387 378 378 378 378 378 334 334 181 181
 181 52 52 52 52 52 103 103 103 103 103 354 354 354 354 354 109 109 109 109
 109 370 370 370 370 370 334 334 181 181 150 52 52 52 52 52 14 103 103 103
 103 354 354 354 359 109 109 109 109 109 109 370 370 370 370 370 370 150 150 150
 150 140 140 52 52 52 238 238 238 238 103 359 359 359 359 359 109 109 109 109
 109 370 370 370 370 370 370 150 150 150 140 140 140 140 52 238 238 238 238 238
 238 238 359 359 359 359 385 385 385 47 275 275 370 370 370 370 312 150 150 150
 140 140 140 140 238 238 238 238 238 238 238 238 359 359 359 385 385 385 47 47
 47 320 320 320 320 312 312 312 312 150 140 140 140 140 238 238 238 238 238 238
 238 238 340 340 340 340 385 385 47 47 47 320 320 320 320 312 312 312 312 312
 312 140 284 284 284 238 238 238 238 238 238 340 340 340 340 340 305 305 47 47
 47 320 320 320 320 312 312 312 312 312 16 16 284 284 284 238 238 238 238 238
 238 340 340 340 340 340 305 305 305 335 47 320 320 320 320 312 312 312 312 312
 16 16 16 284 284 284 260 260 260 260 228 228 228 340 340 340 305 305 37 37
 37 37 37 320 320 312 312 312 312 172 16 16 16 16 85 85 260 260 260 260
 228 228 228 228 228 340 305 37 37 37 37 37 37 37 225 312 312 312 172 172
 16 16 16 16 85 85 85 260 260 260 228 228 228 228 228 228 37 37 37 37
 37 270 270 270 225 225 225 225 172 172 263 263 16 85 85 85 85 260 260 260
 228 228 228 228 228 228 326 37 37 37 270 270 270 225 225 225 225 225 292 292
 292 263 137 137 85 85 85 149 149 260 228 228 228 228 326 326 326 326 37 37
 270 270 270 225 225 225 225 225 292 292 292 263 137 137 137 85 149 149 149 149
 228 228 228 228 326 326 326 326 141 257 257 257 165 165 225 225 225 225 292 292
 292 79 79 137 137 90 149 149 149 149 228 228 276 276 326 326 326 141 141 257
 257 257 165 165 165 225 225 225 292 292 79 79 79 79 90 90 90 90 90 90
 90 276 276 276 276 326 326 141 141 141 257 165 165 165 165 165 225 225 292 292
 352 79 79 79 90 90 90 90 90 90 90 90 69 69 273 273 273 141 141 141
 141 141 165 165 165 165 317 352 352 352 352 352 79 357 90 90 90 90 90 90
 90 325 69 69 273 273 273 141 141 141 141 141 165 165 165 317 317 352 352 352
 352 352 357 357 357 90 90 90 90 90 90 325 146 69 273 273 273 141 141 141
 141 141 246 246 246 246 317 352 352 352 352 357 357 357 357 90 90 90 90 90
 325 325 146 146 120 120 120 141 141 141 141 141 246 246 246 246 246 352 352 352
 352 357 357 357 357 90 90 90 90 90 146 146 146 146 146 120 120 141 141 141
 214 214 246 246 246 246 173 113 352 352 241 241 241 357 357 90 90 332 332 332
 146 146 146 146 146 84 84 84 141 214 214 214 214 246 246 113 113 113 231 231
 231 241 241 241 241 98 98 98 98 332 146 146 146 146 146 146 84 84 39 214
 214 214 214 179 173 113 113 113 231 231 231 241 241 241 304 304 98 98 98 332
 355 355 146 146 146 373 373 39 39 179 179 179 179 179 179 113 113 113 231 231
 231 241 241 304 304 304 98 98 98 332 355 355 146 373 373 373 373 39 39 39
 179 179 179 179 113 113 113 113 113 231 160 160 304 304 304 304 105 105 105 332
 306 306 373 373 373 373 373 39 39 39 39 39 179 378 378 113 113 113 113 231
 160 160 160 304 304 348 348 105 105 249 306 306 373 373 373 373 373 39 39 39
 39 39 378 378 378 378 59 59 59 160 160 160 160 348 348 348 348 103 249 249
 249 249 354 354 354 373 373 39 39 39 39 39 378 378 378 3 59 59 59 181
 160 160 160 348 348 348 348 103 103 103 249 249 354 354 354 354 354 387 387 387
 387 378 378 378 3 3 59 59 181 181 160 160 160 52 52 348 103 103 103 103
 103 354 354 354 354 354 109 109 387 387 387 387 378 3 3 3 3 3 181 181
 160 52 52 52 52 52 103 103 103 103 103 354 354 354 354 354 109 109 109 387
 387 387 370 370 370 3 3 3 181 181 150 52 52 52 52 52 14 103 103 103
 103 103 354 354 354 109 109 109 109 109 387 370 370 370 370 370 370 150 150 150
 150 140 52 52 52 52 238 238 238 238 238 359 359 359 359 359 385 385 109 109
 47 370 370 370 370 370 370 150 150 150 140 140 140 52 52 238 238 238 238 238
 238 238 359 359 359 385 385 385 385 47 47 47 370 370 370 370 312 312 150 150
 140 140 140 140 238 238 238 238 238 238 238 238 238 359 359 385 385 385 47 47
 47 47 370 370 370 312 312 312 312 312 312 140 140 238 238 238 238 238 238 238
 238 238 340 340 340 311 385 385 47 47 47 47 320 320 312 312 312 312 312 312
 312 284 284 284 284 238 238 238 238 238 238 238 340 340 340 311 311 47 47 47
 47 47 320 320 312 312 312 312 312 312 312 284 284 284 284 284 238 238 238 238
 238 228 340 340 340 311 311 305 37 47 47 47 135 320 312 312 312 312 312 312
 172 284 284 284 284 284 260 260 260 260 228 228 228 228 311 311 311 37 37 37
 37 37 37 37 258 312 312 312 172 172 172 16 284 284 284 85 260 260 260 260
 228 228 228 228 228 311 311 37 37 37 37 37 37 37 258 258 312 312 172 172
 172 16 284 284 85 85 85 260 260 260 228 228 228 228 228 228 37 37 37 37
 37 37 270 270 225 225 225 172 172 172 292 137 137 85 85 85 85 260 260 260
 228 228 228 228 228 228 326 37 37 37 37 37 270 225 225 225 225 225 292 292
 292 137 137 137 85 85 85 260 260 228 228 228 228 228 326 326 326 326 37 37
 37 270 270 225 225 225 225 225 292 292 292 137 137 137 137 85 85 149 149 228
 228 228 228 228 326 326 326 326 326 257 257 257 165 165 225 225 225 225 292 292
 292 79 137 137 137 90 90 90 90 90 228 228 276 276 326 326 326 326 141 257
 257 257 165 165 165 225 225 225 292 292 292 79 79 137 90 90 90 90 90 90
 90 276 276 276 276 326 326 141 141 141 257 257 165 165 165 165 225 225 292 292
 352 352 151 151 90 90 90 90 90 90 90 69 69 69 69 273 273 141 141 141
 141 141 165 165 165 165 165 352 352 352 352 151 151 357 90 90 90 90 90 90
 90 69 69 69 69 273 273 141 141 141 141 141 165 165 165 165 347 352 352 352
 352 352 357 357 357 90 90 90 90 90 90 146 69 69 69 273 273 141 141 141
 141 141 246 246 246 347 347 352 352 352 352 352 357 357 357 90 90 90 90 90
 146 146 146 146 146 120 120 141 141 141 141 141 246 246 246 347 347 352 352 352
 352 352 357 357 357 90 90 90 90 90 146 146 146 146 146 146 146 141 141 141
 214 214 246 246 246 347 347 347 352 352 241 241 241 357 357 90 90 90 90 146
 146 146 146 146 146 146 146 146 141 214 214 214 214 246 246 347 113 113 231 231
 231 241 241 241 241 98 98 98 98 98 146 146 146 146 146 146 146 146 39 214
 214 214 214 179 173 113 113 113 231 231 231 241 241 241 304 98 98 98 98 98
 146 146 146 146 146 146 146 39 39 39 39 214 214 179 179 113 113 113 231 231
 231 241 304 304 304 304 98 98 98 98 306 306 146 146 146 373 39 39 39 39
 39 39 39 179 113 113 113 113 231 231 160 160 304 304 304 304 98 98 98 306
 306 306 306 373 373 373 39 39 39 39 39 39 39 378 3 3 113 113 113 231
 160 160 160 304 304 304 158 158 158 306 306 306 306 373 373 373 39 39 39 39
 39 39 39 378 3 3 59 59 59 160 160 160 160 160 348 348 158 158 158 314
 306 240 240 240 373 373 39 39 39 39 39 39 39 3 3 3 3 59 59 160
 160 160 160 160 348 125 125 103 314 314 314 240 240 240 354 354 387 387 387 387
 387 387 3 3 3 3 3 3 3 160 160 160 160 12 12 125 125 103 314 314
 314 240 240 354 354 267 267 387 387 387 387 387 3 3 3 3 3 3 3 160
 160 160 52 52 52 125 125 103 103 314 314 240 354 354 349 267 267 267 387 387
 387 387 3 3 3 3 3 3 3 160 150 52 52 52 52 52 125 103 103 103
 103 103 349 349 349 267 267 267 267 387 387 387 370 370 370 3 3 3 150 150
 150 52 52 52 52 238 238 238 238 238 238 238 349 349 349 267 267 267 267 267
 387 370 370 370 370 370 370 150 150 150 150 140 140 52 52 238 238 238 238 238
 238 238 349 349 349 267 385 385 385 47 47 370 370 370 370 370 312 312 312 150
 312 140 140 52 238 238 238 238 238 238 238 238 349 349 311 385 385 385 47 47
 47 47 370 370 370 312 312 312 312 312 312 140 284 238 238 238 238 238 238 238
 238 238 311 311 311 311 311 385 47 47 47 47 135 320 312 312 312 312 312 312
 312 312 284 284 284 238 238 238 238 238 238 238 311 311 311 311 311 311 47 47
 47 135 135 135 312 312 312 312 312 312 312 284 284 284 284 284 238 238 238 238
 238 228 228 311 311 311 311 311 37 37 135 135 135 135 312 312 312 312 312 312
 368 284 284 284 284 284 238 238 260 228 228 228 228 228 311 311 311 311 37 37
 37 135 135 135 258 258 258 312 312 172 172 284 284 284 284 85 260 260 260 228
 228 228 228 228 228 311 311 37 37 37 37 37 135 135 258 258 258 312 172 172
 368 284 284 284 85 85 85 260 260 260 228 228 228 228 228 228 311 37 37 37
 37 37 135 258 258 258 258 368 368 172 292 284 284 85 85 85 85 260 260 228
 228 228 228 228 228 228 228 37 37 37 37 297 297 225 225 225 225 225 292 292
 292 137 137 137 85 85 85 260 239 239 228 228 228 228 228 326 326 326 37 297
 297 297 297 225 225 225 225 225 292 292 292 292 137 137 137 85 85 239 239 239
 239 228 228 228 326 326 326 326 326 257 297 297 165 165 225 225 225 225 292 292
 292 292 137 137 137 90 90 90 239 239 239 239 239 228 326 326 326 326 141 257
 257 257 165 165 165 225 225 225 292 292 352 352 137 137 137 90 90 90 90 90
 239 239 69 69 69 326 326 141 141 141 257 165 165 165 165 165 225 352 352 352
 352 151 151 151 90 90 90 90 90 90 239 69 69 69 69 69 273 141 141 141
 141 141 165 165 165 165 347 352 352 352 352 151 151 151 90 90 90 90 90 90
 90 69 69 69 69 69 273 141 141 141 141 141 165 347 347 347 347 352 352 352
 352 151 151 357 357 90 90 90 90 90 90 146 69 69 69 69 273 141 141 141
 141 141 246 347 347 347 347 352 352 352 352 352 357 357 357 90 90 90 90 90
 146 146 146 146 146 146 146 141 141 141 141 141 246 246 347 347 347 347 352 352
 352 352 357 357 357 90 90 90 90 90 146 146 146 146 146 146 146 146 141 141
 11 11 246 347 347 347 347 347 352 352 30 30 30 357 357 90 90 90 90 146
 146 146 146 146 146 146 146 146 39 11 11 11 11 347 347 347 347 347 30 30
 30 30 30 241 241 98 98 98 98 146 146 146 146 146 146 146 146 39 39 39
 11 11 11 347 347 347 347 30 30 30 30 30 241 241 156 98 98 98 98 98
 146 146 146 146 146 146 146 39 39 39 39 39 39 39 347 347 30 30 30 30
 30 30 304 304 304 304 98 98 98 306 306 306 306 146 146 146 39 39 39 39
 39 39 39 39 39 30 30 30 30 30 160 160 304 304 304 304 158 158 158 306
 306 306 306 306 373 373 39 39 39 39 39 39 39 39 3 3 3 30 30 30
 160 366 160 304 304 158 158 158 158 158 306 306 306 306 373 39 39 39 39 39
 39 39 39 3 3 3 3 3 59 160 366 366 366 160 348 158 158 158 158 158
 306 240 240 240 240 39 39 39 39 39 39 39 39 3 3 3 3 3 3 160
 160 366 160 160 125 125 158 158 314 314 314 240 240 240 240 354 387 387 387 387
 387 387 3 3 3 3 3 3 3 160 160 160 160 12 12 125 125 125 314 314
 314 240 240 240 349 267 267 387 387 387 387 387 3 3 3 3 3 3 3 119
 119 160 12 12 12 125 125 125 314 314 314 240 240 349 349 267 267 267 387 387
 387 387 3 3 3 3 3 3 3 119 119 52 52 52 52 125 125 125 125 314
 314 349 349 349 349 267 267 267 267 387 387 387 3 3 3 3 3 3 119 119
 119 52 52 52 52 125 125 238 238 238 238 349 349 349 349 349 267 267 267 267
 387 10 10 370 370 370 3 3 119 119 150 8 8 8 8 238 238 238 238 238
 238 238 349 349 349 349 267 267 267 267 10 10 10 10 370 370 312 312 312 312
 312 155 8 8 238 238 238 238 238 238 238 238 349 349 349 349 385 385 47 47
 135 135 10 10 10 312 312 312 312 312 312 312 155 8 238 238 238 238 238 238
 238 238 311 311 311 311 311 311 47 47 135 135 135 135 312 312 312 312 312 312
 312 312 284 284 284 238 238 238 238 238 238 238 311 311 311 311 311 311 47 135
 135 135 135 135 312 312 312 312 312 312 368 368 284 284 284 284 238 376 238 238
 238 228 228 311 311 311 311 311 37 135 135 135 135 135 258 258 312 312 312 368
 368 368 284 284 284 284 376 376 376 228 228 228 228 311 311 311 311 311 37 37
 135 135 135 135 258 258 258 368 368 368 368 368 284 284 284 243 243 260 260 228
 228 228 228 228 311 311 311 37 37 37 37 135 135 135 258 258 258 368 368 368
 368 368 284 284 284 85 85 260 260 228 228 228 228 228 228 228 311 37 37 37
 37 135 135 135 258 258 258 368 368 368 368 368 284 284 85 85 85 239 239 228
 228 228 228 228 228 228 285 285 285 37 297 297 297 297 258 258 258 368 368 368
 292 292 137 137 85 85 85 239 239 239 239 228 228 228 228 233 233 285 285 297
 297 297 297 297 225 225 225 225 292 292 292 292 137 137 137 85 239 239 239 239
 239 239 228 228 233 233 233 233 297 297 297 297 297 297 225 225 225 225 292 292
 292 352 137 137 137 239 239 239 239 239 239 239 239 233 233 233 233 233 297 297
 297 297 297 165 165 225 225 225 292 292 352 352 143 143 143 90 90 90 239 239
 239 239 69 69 69 233 233 141 141 141 297 297 165 165 165 165 225 352 352 352
 352 352 143 143 143 90 90 90 239 239 239 239 69 69 69 69 296 296 141 141
 297 297 297 347 347 347 347 352 352 352 352 151 151 112 143 90 90 90 90 90
 90 69 69 69 69 69 296 296 296 141 141 141 347 347 347 347 347 352 352 352
 352 352 112 112 112 90 90 90 90 90 146 146 69 69 69 69 296 296 296 296
 141 141 347 347 347 347 347 347 352 352 352 352 112 112 112 112 90 90 90 90
 146 146 146 146 146 146 296 296 296 296 11 11 347 347 347 347 347 347 352 352
 30 352 112 112 112 112 251 251 251 146 146 146 146 146 146 146 296 296 296 296
 11 11 11 347 347 347 347 347 347 30 30 30 30 112 112 112 28 28 28 146
 146 146 146 146 146 146 146 296 296 11 11 11 11 347 347 347 347 347 30 30
 30 30 30 156 156 156 28 28 28 146 146 146 146 146 146 146 146 39 39 39
 11 11 11 347 347 347 347 30 30 30 30 30 156 156 156 156 199 199 199 199
 146 146 146 146 146 146 146 39 39 39 39 39 39 347 347 347 30 30 30 30
 30 30 388 388 388 199 199 199 199 199 306 306 306 146 146 146 39 39 39 39
 39 39 39 39 347 30 30 30 30 30 30 30 388 388 388 158 158 158 158 306
 306 306 306 306 146 146 39 39 39 39 39 39 39 39 3 3 30 30 30 30
 366 366 388 388 388 158 158 158 158 158 306 306 306 306 146 39 39 39 39 39
 39 39 39 3 3 3 3 3 30 30 366 366 366 388 388 158 158 158 158 158
 158 240 240 240 240 65 39 39 39 39 39 39 39 3 3 3 3 3 3 160
 286 286 286 286 125 125 158 158 158 314 314 240 240 240 240 65 387 387 387 387
 387 387 3 3 3 3 3 3 3 119 286 286 286 12 125 125 125 125 314 314
 314 240 240 240 349 349 267 387 387 387 387 387 3 3 3 3 3 3 3 119
 119 286 286 12 125 125 125 125 125 314 365 365 365 349 349 349 267 267 387 387
 387 387 3 3 3 3 3 3 119 119 119 119 8 8 125 125 125 125 125 365
 365 365 349 349 349 349 267 267 267 387 387 387 10 3 3 3 3 3 119 119
 119 8 8 8 8 125 125 125 125 365 365 365 349 349 349 349 267 267 267 267
 387 10 10 10 10 3 3 119 119 119 119 8 8 8 8 8 238 238 238 238
 365 365 349 349 349 349 267 267 267 267 10 10 10 10 10 10 312 312 119 119
 155 155 8 8 8 238 238 238 238 238 238 365 349 349 361 361 361 385 267 135
 135 135 10 10 10 10 312 312 312 312 155 155 155 8 8 238 238 238 238 238
 238 238 33 349 361 361 361 311 135 135 135 135 135 135 10 10 312 312 312 312
 155 155 155 155 284 238 376 376 376 238 238 238 311 311 311 311 311 311 135 135
 135 135 135 135 135 312 312 312 312 368 368 155 155 155 284 376 376 376 376 376
 376 228 228 311 311 311 311 311 135 135 135 135 135 135 135 258 312 368 368 368
 368 368 284 284 243 243 376 376 376 376 228 228 228 311 311 311 311 311 135 135
 135 135 135 135 258 258 258 368 368 368 368 368 284 284 243 243 243 376 376 228
 228 228 228 228 311 311 311 311 37 135 135 135 135 135 258 258 258 368 368 368
 368 368 63 63 243 243 243 243 239 239 228 228 228 228 228 228 285 285 285 37
 135 135 135 135 168 258 168 368 368 368 368 368 63 63 63 85 239 239 239 239
 239 228 228 228 228 233 285 285 285 297 297 297 297 297 168 168 168 368 368 368
 368 368 63 63 63 85 239 239 239 239 239 239 228 228 233 233 233 285 285 297
 297 297 297 297 168 168 168 368 368 368 292 292 137 63 63 239 239 239 239 239
 239 239 239 233 233 233 233 233 297 297 297 297 297 297 297 168 168 168 292 292
 352 143 143 143 143 143 239 239 239 239 239 239 239 233 233 233 233 233 297 297
 297 297 297 297 297 168 168 352 352 292 352 352 143 143 143 143 239 239 239 239
 239 239 239 69 233 233 233 233 297 297 297 297 297 297 297 165 352 352 352 352
 352 352 143 143 143 143 90 239 239 239 239 239 69 69 69 296 296 296 296 297
 297 297 297 347 347 347 347 352 352 352 352 352 112 112 112 112 251 251 251 90
 239 69 69 69 69 296 296 296 296 296 297 297 347 347 347 347 347 347 352 352
 352 352 112 112 112 112 251 251 251 251 4 4 69 69 69 296 296 296 296 296
 296 347 347 347 347 347 347 347 352 352 352 112 112 112 112 112 251 251 251 251
 4 4 146 146 146 296 296 296 296 296 11 11 347 347 347 347 347 347 347 352
 30 112 112 112 112 112 251 251 251 28 146 146 146 146 146 296 296 296 296 296
 11 11 11 347 347 347 347 347 347 30 30 30 112 112 112 112 28 28 28 28
 146 146 146 146 146 146 296 296 296 11 11 11 11 347 347 347 347 347 30 30
 30 30 156 156 156 156 28 28 28 28 146 146 146 146 146 146 296 296 296 11
 11 11 11 11 347 347 347 30 30 30 30 30 156 156 156 199 199 199 199 199
 146 146 146 146 146 146 146 39 39 39 39 11 11 11 347 347 30 30 30 30
 30 30 388 388 388 199 199 199 199 199 45 45 45 146 146 146 39 39 39 39
 39 39 39 39 307 30 30 30 30 30 30 30 388 388 388 199 199 199 199 199
 45 45 45 45 146 167 39 39 39 39 39 39 39 307 307 30 30 30 30 30
 386 386 388 388 388 158 158 158 158 158 45 45 45 45 167 167 39 39 39 39
 39 39 307 307 307 3 3 30 30 30 386 386 388 388 388 158 158 158 158 158
 365 45 240 240 65 65 65 39 39 39 39 39 307 307 307 3 3 3 30 30
 286 286 286 286 125 125 158 158 158 158 365 365 365 365 65 65 65 65 387 387
 387 387 307 307 3 3 3 3 3 119 286 286 286 286 125 125 125 125 158 365
 365 365 365 365 65 65 65 65 387 387 387 387 3 3 3 3 3 279 119 119
 119 286 286 125 125 125 125 125 125 365 365 365 365 365 349 65 65 267 387 387
 387 387 3 3 3 3 3 119 119 119 119 119 8 8 125 125 125 125 125 365
 365 365 365 349 349 349 267 267 267 387 387 10 10 10 3 3 3 119 119 119
 119 8 8 8 8 125 125 125 125 365 365 365 365 349 349 349 267 267 267 267
 10 10 10 10 10 10 10 119 119 119 119 8 8 8 8 8 125 50 50 365
 365 365 365 349 349 349 267 267 267 135 10 10 10 10 10 10 10 119 119 119
 155 155 8 8 8 8 50 50 50 365 365 365 365 349 361 361 361 361 135 135
 135 135 10 10 10 10 312 312 312 155 155 155 155 155 8 50 50 50 50 50
 365 33 33 33 361 361 361 361 135 135 135 135 135 135 10 10 312 312 312 155
 155 155 155 155 8 376 376 376 376 376 376 33 33 33 361 361 361 311 135 135
 135 135 135 135 135 135 312 368 368 155 368 155 155 155 155 376 376 376 376 376
 376 33 33 33 33 311 311 311 135 135 135 135 135 135 135 135 368 368 368 368
 368 368 368 243 243 243 376 376 376 376 228 228 33 33 311 311 311 311 135 135
 135 135 135 135 135 168 168 368 368 368 368 368 368 243 243 243 243 376 376 376
 228 228 228 228 232 232 232 285 285 135 135 135 135 135 168 168 168 368 368 368
 368 368 63 63 63 243 243 243 239 239 239 228 228 228 232 232 285 285 285 135
 135 135 135 168 168 168 168 368 368 368 368 368 63 63 63 243 239 239 239 239
 239 239 228 228 233 233 285 285 285 297 297 297 297 297 168 168 168 168 368 368
 368 368 63 63 63 63 239 239 239 239 239 239 239 233 233 233 233 285 285 297
 297 297 297 297 168 168 168 168 368 368 368 72 63 63 63 239 239 239 239 239
 239 239 239 233 233 233 233 233 297 297 297 152 297 297 168 168 168 168 264 264
 264 143 143 143 143 143 239 239 239 239 239 239 239 233 233 233 233 233 297 297
 297 297 297 297 297 168 168 168 264 264 264 143 143 143 143 143 239 239 239 239
 239 239 239 233 233 233 233 233 297 297 297 297 297 297 297 168 168 264 264 264
 264 264 143 143 143 143 239 239 239 239 239 239 86 86 86 296 296 296 296 296
 297 297 297 347 347 347 347 264 264 264 264 264 143 112 143 251 251 251 251 251
 4 4 86 86 86 296 296 296 296 296 296 297 347 347 347 347 347 347 264 264
 352 352 112 112 112 251 251 251 251 251 4 4 4 86 86 296 296 296 296 296
 296 296 347 347 347 347 347 347 347 352 352 112 112 112 112 251 251 251 251 251
 4 4 4 146 296 296 296 296 296 296 296 11 347 347 347 347 347 347 347 352
 30 112 112 112 112 251 251 251 28 28 4 4 4 146 146 296 296 296 296 296
 11 11 11 347 347 347 347 347 347 30 30 30 30 112 112 251 28 28 28 28
 4 4 146 146 146 296 296 296 296 296 11 11 11 347 347 347 347 347 30 30
 30 30 30 156 156 28 28 28 28 28 28 146 146 146 146 146 296 296 296 296
 11 11 11 11 347 347 347 30 30 30 30 30 156 156 156 199 199 199 199 199
 45 146 146 146 146 146 296 39 39 39 39 11 11 11 347 347 30 30 30 30
 30 30 388 388 388 199 199 199 199 199 45 45 45 146 167 167 167 39 39 39
 39 39 307 307 307 30 30 30 30 30 30 30 388 388 388 199 199 199 199 199
 45 45 45 45 167 167 167 39 39 39 39 39 307 307 307 307 30 30 30 30
 386 386 386 388 388 199 199 199 199 199 45 45 45 45 167 167 167 39 39 39
 39 307 307 307 307 307 307 30 30 30 386 386 386 388 330 158 158 158 158 158
 365 45 45 45 65 65 65 65 272 272 272 307 307 307 307 307 3 279 279 30
 386 386 386 330 330 330 158 158 158 158 365 365 365 365 65 65 65 65 272 272
 272 307 307 307 307 307 279 279 279 279 286 286 286 330 330 330 125 125 125 365
 365 365 365 365 65 65 65 65 272 272 272 272 307 307 307 307 279 279 279 119
 119 286 286 330 330 125 125 125 125 365 365 365 365 365 65 65 65 65 272 272
 272 272 307 3 3 279 279 279 119 119 119 119 8 8 125 125 125 125 125 365
 365 365 365 365 349 349 267 318 272 272 272 10 10 10 10 3 279 119 119 119
 119 8 8 8 8 125 125 125 365 365 365 365 365 365 349 349 318 318 318 318
 318 10 10 10 10 10 10 119 119 119 119 8 8 8 8 8 50 50 50 365
 365 365 365 365 349 349 318 318 318 318 318 10 10 10 10 10 10 119 119 119
 155 155 8 8 8 50 50 50 50 50 365 365 365 365 361 361 361 318 318 135
 135 135 10 10 10 10 10 312 155 155 155 155 155 155 8 50 50 50 50 50
 365 33 33 33 361 361 361 318 135 135 135 135 135 135 10 10 10 312 155 155
 155 155 155 155 155 50 50 50 50 376 376 33 33 33 33 361 361 361 135 135
 135 135 135 135 135 135 368 368 368 155 155 155 155 155 155 376 376 376 376 376
 376 33 33 33 33 33 311 135 135 135 135 135 135 135 135 135 368 368 368 368
 368 368 155 243 243 243 376 376 376 376 376 33 33 33 33 232 232 232 135 135
 135 135 135 135 168 168 168 368 368 368 368 368 368 243 243 243 243 376 376 376
 228 33 33 33 232 232 232 285 285 135 135 135 135 135 168 168 168 368 368 368
 368 368 63 63 243 243 243 243 239 239 239 239 239 228 232 232 232 285 285 135
 135 135 135 168 168 168 168 168 368 368 368 368 63 63 63 243 239 239 239 239
 239 239 239 233 233 233 285 285 285 297 297 297 297 168 168 168 168 168 368 368
 72 72 72 63 63 63 239 239 239 239 239 239 239 233 233 233 233 285 297 297
 297 297 297 168 168 168 168 168 168 368 72 72 72 63 63 239 239 239 239 239
 239 239 239 233 233 233 233 233 297 297 297 297 297 297 168 168 168 168 264 264
 264 72 143 143 143 143 239 239 239 239 239 239 239 233 233 233 233 233 297 297
 297 297 297 297 168 168 168 264 264 264 264 264 143 143 143 143 239 239 239 239
 239 239 239 233 233 233 233 233 297 297 297 297 297 297 168 168 168 264 264 264
 264 264 143 143 143 143 251 239 239 239 239 239 86 86 86 296 296 296 296 296
 297 297 297 347 347 331 331 331 264 264 264 264 89 112 215 215 251 251 251 251
 4 4 86 86 86 296 296 296 296 296 296 297 347 347 347 347 331 331 331 264
 89 89 89 112 215 215 251 251 251 251 4 4 4 86 86 296 296 296 296 296
 296 296 347 347 347 347 347 331 331 331 89 89 89 112 215 215 251 251 251 251
 4 4 4 4 296 296 296 296 296 296 296 11 347 347 347 347 347 347 331 89
 89 89 89 112 215 215 251 251 251 28 4 4 4 4 296 296 296 296 296 296
 296 11 11 347 347 347 347 347 347 89 30 30 89 112 215 215 28 28 28 28
 4 4 4 4 296 296 296 296 296 296 11 11 11 347 347 347 347 347 30 30
 30 30 30 156 156 28 28 28 28 28 4 146 146 146 146 296 296 296 296 296
 268 268 268 268 347 347 347 30 30 30 30 30 156 156 156 199 199 199 199 199
 45 45 45 146 167 167 167 296 296 268 268 268 268 268 347 347 30 30 30 30
 30 30 388 388 199 199 199 199 199 199 45 45 45 45 167 167 167 167 344 344
 268 268 268 268 307 80 30 30 30 30 30 386 388 388 199 199 199 199 199 199
 45 45 45 45 167 167 167 344 344 344 344 307 307 307 307 307 80 30 30 30
 386 386 386 388 199 199 199 199 199 199 45 45 45 45 167 167 167 167 344 344
 344 307 307 307 307 307 307 279 30 30 386 386 386 386 330 330 199 158 158 158
 365 45 45 45 167 167 167 272 272 272 272 307 307 307 307 307 279 279 279 386
 386 386 386 330 330 330 330 158 158 365 365 365 365 365 65 65 65 272 272 272
 272 307 307 307 307 307 279 279 279 279 386 386 386 330 330 330 330 125 365 365
 365 365 365 365 65 65 65 272 272 272 272 272 307 307 307 279 279 279 279 279
 119 286 286 330 330 330 330 125 365 365 365 365 365 365 365 65 65 272 272 272
 272 272 204 204 204 279 279 279 279 119 119 119 8 8 330 330 125 125 365 365
 365 365 365 365 365 365 318 318 318 272 272 272 204 204 204 204 279 279 119 119
 119 8 8 8 8 125 125 125 365 365 365 365 365 365 365 318 318 318 318 318
 318 204 204 204 204 204 204 279 119 119 62 8 8 8 8 313 50 50 50 365
 365 365 365 365 365 318 318 318 318 318 318 10 10 10 10 10 10 62 62 62
 62 155 155 8 8 50 50 50 50 50 365 365 365 365 365 318 318 318 318 318
 207 207 207 10 10 10 10 62 62 62 155 155 155 155 8 50 50 50 50 50
 365 365 33 33 33 33 318 318 318 135 135 135 135 135 10 10 62 62 62 62
 155 155 155 155 155 50 50 50 50 50 50 33 33 33 33 33 361 318 135 135
 135 135 135 135 135 229 229 368 368 155 155 155 155 155 155 50 50 50 50 50
 230 33 33 33 33 33 33 135 135 135 135 135 135 135 135 229 229 368 368 368
 368 368 155 243 243 243 376 376 376 230 230 230 33 33 33 232 232 232 135 135
 135 135 135 135 168 168 168 368 368 368 368 368 368 243 243 243 243 376 376 230
 230 230 230 33 232 232 232 232 285 135 135 135 135 168 168 168 168 168 368 368
 368 368 63 63 243 243 243 243 239 239 230 230 230 230 232 232 232 285 285 135
 135 135 168 168 168 168 168 168 368 368 368 368 63 63 63 96 96 96 239 239
 239 239 239 233 232 232 285 285 285 297 297 297 168 168 168 168 168 168 168 368
 72 72 72 63 63 96 96 96 239 239 239 239 239 233 233 233 233 285 297 297
 297 297 297 168 168 168 168 168 168 368 72 72 72 72 96 96 96 96 239 239
 239 239 239 233 233 233 233 233 297 297 297 297 297 168 168 168 168 168 264 264
 264 72 72 143 143 96 96 96 239 239 239 239 239 233 233 233 233 233 297 297
 297 297 297 297 168 168 168 264 264 264 264 264 143 143 143 96 96 96 239 239
 239 239 239 233 233 233 233 233 297 297 297 297 297 297 168 331 331 264 264 264
 264 264 264 215 215 96 96 96 96 239 239 86 86 86 86 296 296 296 296 296
 1 1 1 1 331 331 331 331 331 264 264 264 89 215 215 215 251 251 251 251
 4 4 86 86 86 296 296 296 296 296 296 1 1 347 347 331 331 331 331 331
 89 89 89 215 215 215 251 251 251 343 4 4 4 86 86 296 296 296 296 296
 296 296 1 347 347 331 331 331 331 331 89 89 89 215 215 215 251 251 251 343
 4 4 4 4 296 296 296 296 296 296 296 296 347 347 347 347 331 331 331 89
 89 89 89 215 215 215 251 251 251 343 4 4 4 4 296 296 296 296 296 296
 296 11 268 347 347 347 347 347 331 89 40 40 40 215 215 215 251 28 28 28
 4 4 4 4 296 296 296 296 296 296 268 268 268 268 347 347 347 347 195 30
 195 40 40 196 215 215 28 28 28 28 4 4 4 382 382 296 296 296 296 268
 268 268 268 268 268 347 347 30 195 195 195 30 36 36 36 199 199 199 199 199
 45 45 45 382 167 167 296 296 296 268 268 268 268 268 268 80 80 30 195 195
 195 36 36 36 36 199 199 199 199 199 45 45 45 45 167 167 167 344 344 344
 268 268 268 268 80 80 80 30 195 195 30 36 36 36 36 199 199 199 199 199
 45 45 45 45 167 167 167 344 344 344 344 268 268 307 80 80 80 80 30 30
 386 386 386 36 36 199 199 199 199 199 45 45 45 45 167 167 167 344 344 344
 344 307 307 307 307 80 80 15 15 15 386 386 386 386 330 330 199 199 199 199
 365 45 45 381 167 167 167 344 344 344 344 307 307 307 307 307 15 15 15 386
 386 386 386 330 330 330 330 330 158 365 365 365 365 365 381 65 65 272 272 272
 272 307 307 307 307 307 279 279 279 279 386 386 386 330 330 330 330 330 365 365
 365 365 365 365 365 65 65 272 272 272 272 44 307 307 307 279 279 279 279 279