# vtk DataFile Version 2.0
Data set from IO Version 6.4.197.9a0dee2
ASCII

DATASET RECTILINEAR_GRID
DIMENSIONS 31 31 31
X_COORDINATES 31 float
-3.250000 3.250000 9.750000 16.250000 22.750000 29.250000 35.750000 42.250000 48.750000 55.250000 61.750000 68.250000 74.750000 81.250000 87.750000 94.250000 100.750000 107.250000 113.750000 120.250000 126.750000 
133.250000 139.750000 146.250000 152.750000 159.250000 165.750000 172.250000 178.750000 185.250000 191.750000 
Y_COORDINATES 31 float
-3.250000 3.250000 9.750000 16.250000 22.750000 29.250000 35.750000 42.250000 48.750000 55.250000 61.750000 68.250000 74.750000 81.250000 87.750000 94.250000 100.750000 107.250000 113.750000 120.250000 126.750000 
133.250000 139.750000 146.250000 152.750000 159.250000 165.750000 172.250000 178.750000 185.250000 191.750000 
Z_COORDINATES 31 float
-3.250000 3.250000 9.750000 16.250000 22.750000 29.250000 35.750000 42.250000 48.750000 55.250000 61.750000 68.250000 74.750000 81.250000 87.750000 94.250000 100.750000 107.250000 113.750000 120.250000 126.750000 
133.250000 139.750000 146.250000 152.750000 159.250000 165.750000 172.250000 178.750000 185.250000 191.750000 
CELL_DATA 27000
SCALARS FeatureIds int 1
LOOKUP_TABLE default
 106 106 28 28 28 7 7 7 7 46 46 46 46 46 266 266 266 266 95 95
 95 95 80 80 80 221 221 106 106 106 106 106 28 28 28 28 28 114 114 114
 46 46 46 46 46 266 266 266 95 95 95 95 221 221 221 221 221 106 106 106
 106 28 28 28 28 28 28 114 114 114 114 46 46 46 46 46 266 266 95 182
 182 182 221 221 221 221 221 221 106 106 106 28 28 28 28 28 28 114 114 114
 114 46 46 46 46 223 223 223 182 182 182 182 221 221 221 221 221 221 106 106
 357 357 28 28 28 28 28 114 114 114 114 46 223 223 223 223 223 29 182 182
 182 182 182 221 221 221 221 221 221 357 357 357 357 28 28 28 28 366 366 366
 105 105 105 223 223 223 29 29 29 182 182 182 55 221 221 221 221 221 221 357
 357 357 357 357 11 11 11 366 366 366 366 105 105 105 223 29 29 29 29 55
 55 55 55 302 221 221 221 221 221 357 357 357 357 11 11 11 11 366 366 366
 366 105 105 105 29 29 29 29 29 29 55 55 55 55 302 221 221 221 340 340
 340 340 357 11 11 11 30 30 366 366 366 228 105 105 29 29 29 29 29 94
 94 55 55 55 302 304 340 340 340 340 340 340 340 229 229 229 229 229 303 303
 228 228 228 228 29 29 29 29 29 94 94 94 94 55 256 304 304 340 340 340
 340 150 150 229 229 229 229 229 303 303 228 228 228 228 29 29 29 29 29 96
 94 94 94 256 256 304 304 304 340 340 150 150 150 229 229 229 229 229 303 303
 303 303 303 29 29 29 29 29 96 96 96 94 256 256 256 256 304 33 33 340
 150 150 150 229 229 229 229 303 303 303 303 303 303 29 29 137 137 137 137 96
 96 94 256 256 256 256 33 33 33 33 287 287 287 287 229 229 229 303 303 303
 303 303 303 303 137 137 137 137 137 137 96 256 256 256 256 33 33 33 33 33
 287 287 287 287 341 341 341 303 303 303 157 157 157 157 204 204 137 137 137 163
 163 163 256 256 256 33 33 33 33 287 287 287 287 287 341 341 341 341 303 146
 157 157 157 157 204 204 204 137 163 163 163 163 163 256 256 33 33 33 33 287
 287 287 287 287 341 341 341 341 146 146 157 157 157 157 345 345 345 163 163 163
 163 163 163 166 166 166 33 33 33 287 287 287 287 287 123 123 123 146 146 146
 146 146 220 220 345 345 345 163 163 163 163 163 166 166 166 166 197 197 88 88
 88 287 287 123 123 123 123 81 81 81 81 49 220 220 220 345 345 163 163 163
 163 163 166 166 166 197 197 197 88 88 88 91 91 91 123 123 123 81 81 81
 81 49 220 220 220 220 64 64 163 163 163 163 166 166 197 197 197 197 88 88
 88 91 91 251 123 123 123 81 81 81 81 49 220 220 220 220 64 64 64 64
 163 163 197 197 197 197 197 197 88 88 91 91 91 251 251 123 123 32 81 81
 81 49 220 176 176 176 64 64 64 64 64 97 97 97 197 197 197 401 88 91
 91 91 251 251 251 251 32 32 32 195 195 195 195 176 176 176 176 64 64 64
 97 97 97 97 197 197 197 401 88 91 91 251 251 251 251 251 32 32 32 195
 195 195 195 195 176 176 176 176 283 199 199 97 97 97 35 35 35 371 371 371
 371 251 251 251 251 251 32 32 32 195 195 195 195 195 195 176 176 176 283 199
 199 199 199 199 35 35 35 371 371 371 371 251 251 251 251 251 32 32 195 195
 195 195 195 195 195 53 53 53 53 199 199 199 199 199 35 35 35 35 371 371
 371 251 251 248 248 248 7 7 195 195 195 195 195 195 195 53 53 53 53 199
 199 199 199 199 35 35 35 35 371 371 213 213 248 248 248 7 7 7 195 195
 195 195 195 195 266 266 53 53 53 199 199 199 199 80 35 35 35 35 213 213
 213 213 248 248 248 7 7 7 7 195 195 195 195 266 266 266 266 53 53 95
 95 95 80 80 80 35 35 35 213 213 106 106 106 248 7 7 7 7 7 7
 195 46 46 266 266 266 266 266 95 95 95 95 80 80 80 35 35 35 106 106
 106 106 28 28 28 7 7 7 93 93 46 46 46 46 266 266 266 266 95 95
 95 95 80 80 80 35 35 106 106 106 106 106 28 28 28 28 28 114 114 114
 46 46 46 46 46 266 266 266 359 359 95 95 221 221 221 221 221 106 106 106
 106 106 28 28 28 399 399 114 114 114 114 46 46 46 46 46 266 266 359 359
 182 182 221 221 221 221 221 106 106 106 106 357 28 28 399 399 399 114 114 114
 114 46 46 46 46 46 223 266 182 182 182 182 221 221 221 221 221 221 106 106
 357 357 357 28 28 399 399 114 114 114 114 114 46 46 223 223 223 29 182 182
 182 182 264 221 221 221 221 221 305 305 357 357 357 357 28 28 28 114 114 114
 114 105 105 105 223 223 29 29 29 182 182 55 264 264 221 221 221 221 305 305
 357 357 357 357 11 11 11 366 366 366 366 105 105 105 223 29 29 29 29 55
 55 55 55 264 264 221 221 221 305 305 340 357 357 357 11 11 11 366 366 366
 366 105 105 105 29 29 29 29 29 29 55 55 55 55 264 221 265 265 340 340
 340 340 357 11 11 11 11 366 366 366 366 105 105 105 29 29 29 29 29 94
 94 94 55 55 363 304 340 340 340 340 340 340 340 300 229 229 229 303 303 303
 303 228 228 228 29 29 29 29 29 94 94 94 94 94 304 304 304 340 340 340
 340 340 300 300 229 229 229 303 303 303 303 303 303 303 29 29 29 29 96 96
 94 94 94 256 304 304 304 304 340 340 340 340 150 229 229 229 229 303 303 303
 303 303 303 303 29 29 29 137 96 96 96 94 256 256 304 304 304 304 304 340
 150 150 150 229 229 229 229 303 303 303 303 303 303 303 137 137 137 137 137 96
 96 96 256 256 256 304 304 304 304 33 287 287 287 287 132 229 303 303 303 303
 303 303 303 303 137 137 137 137 137 137 96 163 256 256 256 304 304 33 33 33
 287 287 287 287 341 341 341 303 303 303 157 157 157 157 204 204 137 137 137 137
 163 163 163 256 256 33 33 33 33 287 287 287 287 287 341 341 341 146 146 146
 157 157 157 157 204 204 204 137 163 163 163 163 163 163 197 197 33 33 33 287
 287 287 287 287 341 341 341 146 146 146 157 157 157 157 204 204 204 163 163 163
 163 163 163 166 197 197 197 197 287 287 287 287 287 287 341 123 146 146 146 146
 146 146 146 220 345 345 345 163 163 163 163 163 163 166 197 197 197 197 88 88
 88 88 287 287 123 123 123 146 146 146 146 49 49 220 220 345 345 163 163 163
 163 163 166 197 197 197 197 197 88 88 88 88 91 317 123 123 123 146 146 146
 49 49 49 220 220 135 64 64 64 163 163 163 197 197 197 197 197 197 88 88
 88 88 317 317 317 123 123 81 146 146 49 49 49 220 220 135 64 64 64 64
 163 197 197 197 197 197 197 197 88 88 91 91 251 317 317 123 32 32 81 81
 81 49 368 368 368 64 64 64 64 64 4 4 4 197 197 197 197 197 88 88
 211 211 251 251 251 251 32 32 32 195 195 195 195 368 368 176 64 64 64 64
 4 4 4 4 197 197 197 197 160 160 160 211 251 251 251 251 32 32 32 195
 195 195 195 195 195 176 176 64 64 199 199 4 4 4 197 197 197 160 160 160
 160 251 251 251 251 251 32 32 195 195 195 195 195 195 195 176 176 176 283 199
 199 199 199 199 35 35 35 160 160 160 160 251 251 251 251 251 32 32 195 195
 195 195 195 195 195 53 53 53 53 199 199 199 199 199 35 35 35 35 160 160
 213 213 248 248 248 248 7 195 195 195 195 195 195 195 195 53 53 53 53 199
 199 199 199 199 35 35 35 35 213 213 213 213 248 248 248 248 7 7 195 195
 195 195 195 195 266 266 53 53 53 53 199 199 199 35 35 35 35 35 213 213
 213 213 248 248 248 7 7 7 7 195 195 195 195 266 266 266 266 53 53 53
 95 199 80 35 35 35 35 35 213 213 106 106 106 248 7 7 7 7 93 93
 195 46 46 266 266 266 266 266 53 53 95 95 80 80 35 35 35 106 106 106
 106 106 106 47 28 7 7 93 93 93 93 46 46 46 266 266 266 266 359 359
 359 359 80 80 35 35 35 106 106 106 106 106 106 47 28 28 399 93 93 114
 46 46 46 46 46 266 266 266 359 359 359 359 221 221 221 221 221 106 106 106
 106 106 47 47 47 399 399 114 114 114 114 46 46 46 46 46 266 359 359 359
 359 359 264 221 221 221 221 106 106 106 106 357 47 47 47 399 399 114 114 114
 114 46 46 46 46 46 189 359 359 359 182 264 264 264 221 221 221 106 106 106
 305 357 47 47 47 399 399 114 114 114 114 114 46 46 46 46 189 29 359 182
 182 264 264 264 264 221 221 305 305 305 305 357 357 357 47 28 28 114 114 114
 114 114 105 105 223 223 29 29 29 182 182 264 264 264 264 264 221 305 305 305
 305 357 357 357 11 11 11 366 366 366 366 105 105 105 223 29 29 29 29 55
 55 264 264 264 264 264 265 265 305 305 305 357 357 357 11 11 11 366 366 366
 366 366 105 105 29 29 29 29 29 29 55 264 264 264 264 264 265 265 265 305
 340 340 357 300 300 11 366 366 366 366 366 366 105 105 29 29 29 29 29 94
 94 94 363 363 363 363 265 265 340 340 340 340 300 300 300 300 303 303 303 303
 303 303 303 29 29 29 29 29 29 94 94 94 363 363 363 304 304 304 340 340
 340 300 300 300 300 300 303 303 303 303 303 303 303 303 29 29 29 29 96 96
 96 94 363 363 304 304 304 304 304 340 340 300 300 300 300 229 303 303 303 303
 303 303 303 303 29 29 29 137 96 96 96 96 363 304 304 304 304 304 304 340
 338 338 132 132 132 132 303 303 303 303 303 303 303 303 137 137 137 137 137 96
 96 96 256 304 304 304 304 304 304 338 338 287 287 132 132 132 132 303 303 303
 303 303 303 303 137 137 137 137 137 137 96 96 256 256 304 304 304 304 338 338
 287 287 287 132 132 132 132 303 303 303 303 157 157 157 204 204 137 137 137 137
 163 163 76 330 304 304 33 33 338 338 287 287 287 287 341 341 341 146 146 146
 157 157 157 157 204 204 204 137 163 163 163 163 163 197 197 197 197 33 338 287
 287 287 287 287 341 341 341 146 146 146 146 157 157 157 204 204 204 163 163 163
 163 163 163 197 197 197 197 197 287 287 287 287 287 287 244 244 146 146 146 146
 146 146 146 146 135 135 135 163 163 163 163 163 197 197 197 197 197 197 197 88
 88 287 287 244 244 244 244 146 146 146 146 146 146 135 135 135 135 135 163 163
 163 163 197 197 197 197 197 197 88 88 88 88 317 317 244 244 244 146 146 146
 146 236 236 135 135 135 135 64 64 163 163 197 197 197 197 197 197 197 88 88
 88 88 317 317 317 244 244 146 146 146 146 236 368 368 135 135 135 64 64 64
 4 197 197 197 197 197 197 197 88 88 211 211 317 317 317 317 244 146 146 146
 195 368 368 368 368 368 64 64 64 64 4 4 4 197 197 197 197 197 197 88
 211 211 317 317 317 317 32 32 195 195 195 195 368 368 368 368 64 64 64 4
 4 4 4 4 197 197 197 197 160 160 211 211 211 317 317 251 32 32 195 195
 195 195 195 368 368 368 64 64 64 4 4 4 4 4 197 197 197 160 160 160
 160 211 211 211 251 251 32 32 195 195 195 195 195 195 195 368 176 64 199 199
 199 4 4 4 35 35 160 160 160 160 160 160 211 251 251 248 32 195 195 195
 195 195 195 195 195 195 53 53 53 199 199 199 199 199 35 35 35 160 160 160
 213 213 213 248 248 248 248 195 195 195 195 195 195 195 195 53 53 53 53 199
 199 199 199 35 35 35 35 213 213 213 213 213 213 248 248 248 7 7 195 195
 195 195 195 195 266 266 53 53 53 53 199 199 199 35 35 35 35 213 213 213
 213 213 213 248 248 248 7 93 93 93 195 195 195 266 266 266 266 53 53 53
 53 199 199 35 35 35 35 213 213 213 213 213 213 248 7 7 7 93 93 93
 93 46 46 266 266 266 266 266 53 53 95 95 35 35 35 35 35 213 213 213
 106 106 106 47 47 397 397 93 93 93 93 46 46 46 266 266 266 266 359 359
 359 359 188 188 188 35 106 106 106 106 106 106 47 47 47 47 397 397 397 93
 93 46 46 46 46 266 266 359 359 359 359 359 188 188 188 188 106 106 106 106
 106 106 47 47 47 47 397 397 397 114 114 46 46 46 46 189 189 359 359 359
 359 359 264 188 221 203 203 203 106 106 305 47 47 47 47 47 397 114 114 114
 114 46 46 46 46 189 189 189 359 359 379 379 264 264 264 264 203 203 305 305
 305 305 47 47 47 47 47 114 114 114 114 114 46 46 189 189 189 189 379 379
 379 379 264 264 264 264 203 305 305 305 305 305 357 47 47 47 47 114 114 114
 114 392 392 105 189 189 189 29 379 379 379 379 264 264 264 264 203 305 305 305
 305 305 357 357 47 292 361 366 366 366 392 392 392 392 254 254 29 29 29 379
 379 379 264 264 264 264 265 265 305 305 305 305 357 300 300 292 292 366 366 366
 392 392 392 392 254 29 29 29 29 29 379 379 264 264 264 265 265 265 265 305
 340 243 243 300 300 300 366 366 366 366 366 392 392 392 29 29 29 29 29 94
 94 363 363 363 363 265 265 265 265 340 340 243 300 300 300 300 303 303 303 303
 303 303 303 29 29 29 29 29 29 94 94 94 363 363 363 304 304 304 304 340
 340 300 300 300 300 300 303 303 303 303 303 303 303 303 29 29 29 29 96 96
 96 363 363 363 304 304 304 304 304 340 300 300 300 300 300 300 303 303 303 303
 303 303 303 326 326 326 29 137 96 96 96 96 363 304 304 304 304 304 304 147
 338 300 132 132 132 132 303 303 303 303 303 303 303 326 326 326 137 137 137 96
 96 96 76 304 304 304 304 304 338 338 338 287 132 132 132 132 132 303 303 303
 303 303 326 326 326 326 137 137 137 137 76 76 76 330 304 304 304 304 338 338
 338 287 132 132 132 132 132 303 303 303 303 303 370 370 326 326 137 137 137 76
 76 76 76 330 330 330 304 304 338 338 287 287 287 132 132 132 132 273 146 146
 146 146 370 370 370 370 204 137 185 76 76 76 76 330 330 330 197 197 338 287
 287 287 287 132 132 132 146 146 146 146 146 146 146 370 370 370 204 119 163 76
 76 76 76 197 197 197 197 197 197 287 287 287 287 287 244 244 146 146 146 146
 146 146 146 135 135 135 135 135 163 163 76 76 197 197 197 197 197 197 197 197
 88 287 317 244 244 244 244 146 146 146 146 236 236 135 135 135 135 135 135 163
 163 197 197 197 197 197 197 197 197 88 88 317 317 317 244 244 244 146 146 146
 146 236 236 135 135 135 135 135 153 153 153 153 197 197 197 197 197 197 197 88
 88 317 317 317 317 244 244 146 146 146 236 236 368 368 135 135 135 135 153 153
 153 153 197 197 197 197 197 197 197 88 211 211 317 317 317 317 244 146 146 146
 236 368 368 368 368 368 368 64 64 153 153 4 4 197 197 197 197 197 197 197
 211 211 317 317 317 317 329 329 224 195 195 368 368 368 368 368 368 21 21 4
 4 4 4 4 197 197 197 197 160 160 211 211 211 317 317 317 329 329 195 195
 195 195 368 368 368 368 368 21 21 4 4 4 4 4 246 246 246 160 160 160
 160 211 211 211 317 329 329 329 195 195 195 195 195 368 368 217 217 21 21 4
 4 4 4 4 246 246 246 160 160 160 160 160 211 211 251 329 329 195 195 195
 195 195 195 195 217 217 217 217 217 4 4 4 4 347 246 246 246 160 160 160
 213 213 213 248 248 248 248 195 195 195 195 195 195 195 217 217 217 53 53 199
 199 199 347 347 35 35 246 213 213 213 213 213 213 248 248 248 7 195 195 195
 195 195 195 195 217 217 217 53 53 53 199 347 347 347 35 35 213 213 213 213
 213 213 213 248 248 248 93 93 93 93 195 195 195 266 266 266 266 53 53 53
 347 347 347 347 35 35 213 213 213 213 213 213 213 248 7 7 93 93 93 93
 93 195 46 266 266 266 266 266 53 60 60 347 347 347 35 35 35 213 213 213
 106 106 241 47 397 397 397 397 397 93 93 46 46 46 86 86 339 339 359 359
 359 359 188 188 188 188 284 284 213 213 106 106 47 47 47 397 397 397 397 397
 397 46 46 46 46 86 339 339 359 359 359 359 188 188 188 188 284 284 203 106
 106 106 47 47 47 397 397 397 397 397 1 1 1 189 189 189 189 339 359 359
 359 359 188 188 188 203 203 203 203 203 305 47 47 47 47 47 397 397 397 397
 1 1 1 189 189 189 189 189 359 379 379 379 264 264 264 203 203 203 203 203
 305 305 47 47 47 47 397 397 114 114 1 1 1 189 189 189 189 189 379 379
 379 379 264 264 264 203 203 203 305 305 305 305 47 47 47 47 361 361 156 392
 1 392 1 189 189 189 189 189 379 379 379 379 264 264 264 264 203 305 305 305
 305 305 357 47 292 292 361 361 392 392 392 392 392 392 254 254 254 254 379 379
 379 379 264 264 264 264 265 265 305 305 305 243 243 243 292 292 292 292 366 392
 392 392 392 392 254 254 254 254 254 379 379 379 264 264 264 264 265 265 265 305
 243 243 243 243 292 292 292 303 366 392 392 392 392 392 254 254 254 254 272 272
 379 379 363 363 363 363 265 265 265 243 243 243 243 300 300 300 303 303 303 303
 303 303 392 392 254 254 29 272 272 272 272 363 363 363 363 304 304 304 304 243
 243 243 300 300 300 178 178 303 303 303 303 196 196 196 326 326 29 272 272 272
 272 363 363 363 304 304 304 304 304 147 147 243 300 300 300 178 178 303 303 303
 303 196 196 326 326 326 185 272 272 272 272 272 363 363 304 304 304 304 147 147
 147 243 132 132 132 132 132 303 303 303 303 196 326 326 326 326 185 185 185 272
 272 272 76 304 304 304 304 304 147 147 338 338 132 132 132 132 132 303 303 303
 303 303 326 326 326 326 185 185 185 185 76 76 76 330 330 304 304 304 338 338
 338 287 132 132 132 132 132 273 273 303 303 370 370 370 370 326 185 185 185 185
 76 76 76 330 330 330 304 304 338 338 287 287 132 132 132 132 273 273 273 146
 146 146 370 370 370 370 185 185 185 76 76 76 76 330 330 330 330 304 338 338
 395 395 395 132 132 132 273 273 146 146 146 146 370 370 370 370 119 119 119 76
 76 76 76 330 197 197 197 197 197 287 395 395 395 132 244 244 146 146 146 146
 146 146 146 370 370 135 119 119 79 76 76 76 197 197 197 197 197 197 197 197
 395 395 395 244 244 244 244 146 146 146 146 146 146 135 135 135 135 119 119 153
 76 76 197 197 197 197 197 197 197 197 395 395 317 317 244 244 244 146 146 146
 146 236 236 368 135 135 135 135 153 153 153 153 197 197 197 197 197 197 197 88
 88 317 317 317 317 244 244 146 146 146 146 236 368 368 368 135 135 135 153 153
 153 153 197 197 197 197 197 197 197 197 211 317 317 317 317 317 329 329 146 146
 368 368 368 368 368 368 368 21 153 153 153 153 4 197 197 197 197 197 197 197
 211 211 317 317 317 329 329 329 224 224 224 368 368 368 368 368 21 21 21 153
 4 4 4 4 197 197 197 197 160 160 211 211 211 317 317 329 329 329 224 224
 224 368 368 368 368 368 21 21 21 4 4 4 4 4 246 246 246 160 160 160
 160 211 211 211 329 329 329 329 224 224 195 195 195 368 217 217 217 21 21 4
 4 4 4 246 246 246 246 160 160 160 160 213 211 211 329 329 329 329 195 195
 195 195 195 217 217 217 217 217 21 4 4 4 347 347 246 246 246 246 160 160
 213 213 213 213 248 248 329 184 195 195 195 195 195 217 217 217 217 217 217 60
 60 347 347 347 347 246 246 213 213 213 213 213 213 213 381 248 184 184 184 195
 195 195 195 217 217 217 217 217 60 60 60 347 347 347 347 347 246 213 213 213
 213 213 213 213 381 381 184 184 184 93 195 195 195 217 217 217 217 53 60 60
 60 60 347 347 347 347 213 213 213 213 213 213 213 381 381 397 397 184 93 93
 93 195 86 86 86 86 86 266 60 60 60 60 347 347 347 347 213 213 213 213
 144 241 241 241 241 397 397 397 397 184 184 86 86 86 86 86 86 339 339 359
 359 188 188 188 188 188 284 284 284 144 144 241 241 241 241 397 397 397 397 397
 397 1 1 86 86 86 339 339 339 359 359 188 188 188 188 188 284 284 284 144
 144 241 241 241 241 397 397 397 397 397 1 1 1 189 189 189 189 339 339 359
 359 188 188 188 188 203 203 203 203 203 305 47 47 47 47 47 397 397 397 397
 1 1 1 189 189 189 189 189 339 379 379 379 65 65 65 203 203 203 203 203
 305 305 47 47 47 361 361 361 397 156 1 1 1 189 189 189 189 189 189 379
 379 379 379 264 264 203 203 203 203 305 305 305 364 47 47 361 361 361 156 156
 156 392 392 189 189 189 189 189 379 379 379 379 379 264 264 264 203 203 305 305
 305 305 243 292 292 361 361 361 156 156 392 392 392 392 254 254 254 254 379 379
 379 379 379 264 264 264 265 265 305 305 243 243 243 243 292 292 361 361 156 156
 392 392 392 392 254 254 254 254 254 379 379 379 379 264 264 264 265 265 265 305
 243 243 243 243 292 292 292 361 156 156 392 392 392 392 254 254 254 254 272 272
 379 379 363 363 363 363 265 265 265 243 243 243 243 243 384 384 384 303 303 303
 196 196 392 392 254 254 254 272 272 272 272 272 363 363 363 304 304 304 243 243
 243 243 243 300 178 178 178 303 303 303 196 196 196 196 326 254 272 272 272 272
 272 272 363 363 304 304 304 304 147 147 147 243 243 300 178 178 178 303 303 303
 196 196 196 326 326 326 272 272 272 272 272 272 272 363 304 304 304 304 147 147
 147 243 132 132 132 178 178 303 303 303 196 196 196 326 326 326 185 185 185 272
 272 272 272 330 304 194 194 304 147 147 338 132 132 132 132 132 132 273 303 303
 303 196 370 326 326 326 185 185 185 185 272 76 76 330 330 194 194 194 194 338
 338 132 132 132 132 132 273 273 273 273 205 370 370 370 370 370 185 185 185 185
 76 76 76 330 330 194 194 194 194 338 395 132 132 132 132 132 273 273 273 273
 205 205 370 370 370 370 185 185 185 76 76 76 76 330 330 330 194 194 194 338
 395 395 395 132 132 273 273 273 273 146 146 205 370 370 370 370 119 119 119 76
 76 76 76 330 330 197 197 197 197 92 395 395 395 132 132 273 273 273 146 146
 146 146 370 370 370 370 119 79 119 76 76 76 76 197 197 197 197 197 197 92
 395 395 395 395 244 244 133 146 146 146 146 146 146 370 135 135 119 119 119 119
 76 76 197 197 197 197 197 197 197 92 395 395 395 317 244 244 133 133 146 146
 146 146 236 368 135 135 135 135 153 153 153 153 197 197 197 197 197 197 197 92
 92 317 317 317 317 244 133 133 146 146 146 368 368 368 368 368 368 153 153 153
 153 153 197 197 197 197 197 197 197 92 211 317 317 317 317 317 329 329 224 224
 368 368 368 368 368 368 368 21 153 153 153 153 153 109 197 197 197 197 197 197
 211 211 317 317 317 329 329 329 224 224 224 368 368 368 368 368 21 21 21 153
 153 153 4 4 197 197 197 197 160 160 211 211 211 317 329 329 329 396 224 224
 224 368 368 368 368 217 21 21 21 4 4 4 4 246 246 246 246 246 160 160
 367 211 211 107 329 329 329 329 224 224 224 368 368 217 217 217 217 21 21 4
 4 4 4 246 246 246 246 246 367 367 367 213 213 107 329 329 329 329 224 195
 195 195 195 217 217 217 217 217 21 21 4 347 347 347 246 138 246 246 367 367
 213 213 213 213 381 329 329 184 184 195 195 195 195 217 217 217 217 217 60 60
 60 347 347 347 347 246 246 246 367 367 213 213 213 381 381 381 184 184 184 184
 195 195 195 217 217 217 217 217 60 60 60 60 347 347 347 347 246 213 213 213
 213 213 213 381 381 381 184 184 184 184 184 195 86 86 86 86 86 86 60 60
 60 60 347 347 347 347 347 213 213 213 213 213 241 381 381 381 184 184 184 184
 184 86 86 86 86 86 86 86 60 60 60 60 347 347 347 347 347 213 213 213
 144 241 241 241 381 381 397 397 397 397 397 86 86 86 86 86 86 339 339 339
 359 188 188 188 188 188 284 284 144 144 144 241 241 241 241 241 397 397 397 397
 397 1 86 86 86 86 86 339 339 359 359 188 188 188 188 188 284 284 144 144
 144 241 241 241 241 241 397 397 397 397 1 1 1 189 189 189 189 339 339 372
 65 65 65 65 65 65 203 203 203 144 144 241 241 241 241 241 397 397 397 397
 1 1 1 189 189 189 189 189 339 379 379 65 65 65 65 203 203 203 203 203
 364 364 364 47 361 361 361 361 156 156 1 1 1 189 189 189 189 189 212 379
 379 379 65 65 65 231 203 203 203 203 364 364 364 364 361 361 361 361 156 156
 156 156 1 16 189 189 189 212 212 212 379 379 379 65 231 231 231 203 203 203
 364 364 364 364 361 361 361 361 156 156 156 392 392 392 254 254 254 212 212 212
 379 379 379 379 231 231 231 231 305 305 243 243 243 243 292 361 361 361 156 156
 156 392 392 392 254 254 254 212 212 212 212 379 379 379 231 231 231 265 265 243
 243 243 243 243 384 384 384 361 156 156 156 392 392 104 254 254 254 212 212 212
 212 212 74 74 74 74 231 265 243 243 243 243 243 243 384 384 384 361 156 156
 104 104 104 104 104 254 272 272 272 272 272 272 74 74 74 74 304 304 243 243
 243 243 243 243 384 384 384 303 303 303 196 196 196 104 104 272 272 272 272 272
 272 272 74 74 74 304 304 304 147 147 147 243 243 300 178 178 178 19 19 19
 196 196 196 326 326 326 272 272 272 272 272 272 272 74 74 304 304 304 147 147
 147 243 132 132 132 178 19 19 19 19 196 196 196 326 326 326 185 185 272 272
 272 272 272 272 194 194 194 194 147 147 147 132 132 132 132 132 19 19 19 19
 205 205 370 370 326 185 185 185 185 185 272 272 76 330 194 194 194 194 194 147
 34 132 132 132 132 139 273 273 273 205 205 205 370 370 370 185 185 185 185 185
 76 76 76 330 330 194 194 194 194 194 395 395 132 132 132 139 273 273 273 205
 205 205 370 370 370 370 185 185 185 185 76 76 76 330 330 194 194 194 194 194
 395 395 395 132 139 139 139 273 273 205 205 205 370 370 370 370 119 119 185 76
 76 76 76 76 327 327 327 327 327 92 395 395 395 395 139 139 139 273 273 146
 205 205 370 370 370 370 79 119 119 76 76 76 76 197 327 327 327 197 92 92
 92 395 395 395 139 139 133 133 133 146 146 146 370 370 370 135 119 119 119 119
 76 76 197 197 197 197 197 197 92 92 92 92 92 107 133 133 133 133 133 146
 146 146 222 222 222 9 9 9 153 153 153 153 197 197 197 197 197 197 92 92
 92 92 107 107 107 133 133 133 133 133 222 222 222 222 222 9 9 9 153 153
 153 153 109 109 109 197 197 197 92 92 92 107 107 107 107 107 329 133 133 224
 222 222 222 222 222 9 9 9 153 153 153 153 109 109 109 197 197 197 92 92
 107 107 107 107 107 329 329 329 224 224 224 222 222 222 222 368 21 21 21 153
 153 153 109 109 109 197 197 197 92 160 107 107 107 107 107 329 329 329 224 224
 224 368 368 368 217 217 21 21 21 13 13 4 4 246 246 246 246 246 367 160
 367 107 107 107 107 329 329 329 224 224 224 224 368 217 217 217 217 21 21 13
 4 4 4 246 246 246 246 246 367 367 367 213 107 107 107 329 329 329 224 224
 224 224 217 217 217 217 217 217 21 60 347 347 347 347 246 246 246 246 367 367
 213 213 107 107 381 381 329 184 184 184 195 195 217 217 217 217 217 217 60 60
 60 60 347 347 347 246 246 246 367 367 213 213 213 381 381 381 184 184 184 184
 184 86 86 86 86 86 217 217 60 60 60 60 347 347 347 347 246 59 213 213
 213 213 381 381 381 381 184 184 184 184 184 86 86 86 86 86 86 86 60 60
 60 60 347 347 347 347 59 59 213 213 213 241 241 381 381 381 184 184 184 184
 184 86 86 86 86 86 86 86 86 60 60 60 347 347 347 347 59 59 213 144
 144 241 241 241 241 381 397 397 397 397 318 318 86 86 86 86 86 86 339 339
 5 5 5 5 5 5 59 59 144 144 144 241 241 241 241 241 397 397 397 397
 318 318 318 86 86 86 86 86 339 372 372 65 65 65 65 65 284 144 144 144
 144 241 241 241 241 241 397 397 397 397 1 318 318 86 86 86 86 86 372 372
 372 65 65 65 65 65 203 203 144 144 144 241 241 241 241 241 397 397 397 156
 1 1 1 16 16 16 16 16 372 372 372 65 65 65 65 65 231 203 203 144
 364 364 364 169 169 169 361 361 156 156 156 156 1 16 16 16 16 212 212 212
 212 65 65 65 65 231 231 231 203 203 364 364 364 169 169 361 361 361 156 156
 156 156 156 16 16 16 16 212 212 212 212 379 65 65 231 231 231 231 203 203
 364 364 364 364 361 361 361 361 156 156 156 156 104 16 16 16 16 212 212 212
 212 212 379 231 231 231 231 231 231 111 243 243 243 243 361 361 361 361 156 156
 156 156 104 104 16 16 16 212 212 212 212 212 212 231 231 231 231 231 231 111
 243 243 243 384 384 384 384 156 156 156 156 104 104 104 104 254 212 212 212 212
 212 212 74 74 74 231 231 231 231 243 243 243 243 243 384 384 384 156 156 156
 104 104 104 104 104 104 272 272 272 272 272 272 74 74 74 74 174 174 174 243
 243 243 243 384 384 384 384 384 156 104 104 104 104 104 104 104 272 272 272 272
 272 272 74 74 74 74 174 174 147 147 34 243 34 384 384 384 19 19 19 104
 104 104 104 104 104 272 272 272 272 272 272 272 272 74 74 194 194 194 147 147
 34 34 34 34 132 19 19 19 19 19 104 104 104 326 326 185 185 185 272 272
 272 272 272 272 194 194 194 194 194 147 34 34 34 34 132 19 19 19 19 19
 205 205 205 370 326 185 185 185 185 272 272 272 272 330 194 194 194 194 194 194
 34 34 34 34 139 139 19 19 19 205 205 205 205 370 370 185 185 185 185 185
 76 76 76 330 194 194 194 194 194 194 34 34 34 132 139 139 139 139 273 205
 205 205 205 370 370 370 185 185 185 185 76 76 76 330 194 194 194 194 194 398
 398 395 395 139 139 139 139 139 273 205 205 205 205 370 370 370 185 185 185 185
 76 76 76 327 327 327 327 327 327 92 395 395 395 24 139 139 139 133 133 205
 205 205 205 370 370 370 79 119 119 76 76 76 76 327 327 327 327 327 92 92
 92 92 24 24 24 133 133 133 133 133 205 205 205 222 222 9 9 119 119 119
 76 76 327 327 327 327 327 327 92 92 92 92 92 107 133 133 133 133 133 133
 133 222 222 222 222 9 9 9 153 153 153 153 152 152 327 327 327 92 92 92
 92 92 107 107 107 133 133 133 133 133 222 222 222 222 222 9 9 9 153 153
 153 153 109 109 109 109 197 92 92 92 107 107 107 107 107 107 133 133 133 133
 222 222 222 222 222 9 9 9 153 153 153 109 109 109 109 109 388 388 92 92
 107 107 107 107 107 107 329 329 224 224 224 222 222 222 222 9 9 9 13 13
 13 13 109 109 109 109 388 388 388 92 107 107 107 107 107 107 329 329 224 224
 224 222 222 222 222 217 217 21 13 13 13 13 109 109 109 246 246 388 388 160
 107 107 107 107 107 107 329 329 224 224 224 224 222 217 217 217 217 21 13 13
 13 13 13 246 246 246 246 59 59 367 367 107 107 107 107 107 107 329 224 224
 280 280 217 217 217 217 217 217 13 13 13 13 347 36 246 246 59 59 59 59
 213 107 107 107 107 107 107 184 184 280 280 280 217 217 14 14 217 217 60 60
 60 60 347 347 246 246 59 59 59 59 213 377 377 381 381 381 381 184 184 184
 280 86 86 86 86 86 86 86 60 60 60 60 347 347 347 59 59 59 59 59
 213 377 381 381 381 381 381 184 184 184 184 86 86 86 86 86 86 86 86 60
 60 347 347 347 347 59 59 59 59 59 213 241 241 381 381 381 381 184 184 184
 184 86 86 86 86 86 86 86 86 60 60 347 347 347 347 59 59 59 59 144
 144 241 241 241 241 381 331 331 331 331 318 318 318 86 86 86 86 62 62 62
 5 5 5 5 5 5 59 59 144 144 144 241 241 241 241 241 397 397 397 318
 318 318 318 318 86 86 86 86 372 372 372 5 5 5 5 5 59 144 144 144
 144 241 241 241 241 241 274 274 274 278 318 318 318 318 86 86 86 86 372 372
 372 65 65 65 65 65 231 231 144 144 144 241 241 241 169 169 274 274 274 278
 278 278 318 16 16 16 16 16 372 372 372 65 65 65 65 231 231 231 144 144
 364 364 364 169 169 169 169 274 274 156 156 156 16 16 16 16 16 16 372 372
 372 65 65 65 231 231 231 231 231 144 364 364 364 169 169 169 169 169 156 156
 156 156 156 16 16 16 16 16 212 212 212 212 65 231 231 231 231 231 231 231
 364 364 364 169 169 169 169 361 156 156 156 156 104 16 16 16 16 212 212 212
 212 212 212 231 231 231 231 231 231 111 111 364 364 169 169 169 361 361 156 156
 156 104 104 104 16 16 16 212 212 212 212 212 212 231 231 231 231 231 111 111
 111 243 243 384 384 384 384 156 156 156 104 104 104 104 104 16 212 212 212 212
 212 212 212 74 74 231 231 231 111 111 243 243 243 225 384 384 384 384 156 104
 104 104 104 104 104 104 212 212 212 212 212 212 74 74 74 231 174 174 174 174
 243 243 225 225 384 384 384 384 104 104 104 104 104 104 104 104 272 272 272 272
 272 272 74 74 74 174 174 174 174 174 34 34 34 225 384 384 19 19 19 104
 104 104 104 104 104 218 218 218 272 272 272 272 272 74 74 174 174 174 174 174
 34 34 34 34 384 19 19 19 19 19 104 104 104 104 112 112 112 272 272 272