# vtk DataFile Version 2.0
Data set from ImportExport Version 6.5.141.ec284b7a5
ASCII

DATASET RECTILINEAR_GRID
DIMENSIONS 26 26 26
X_COORDINATES 26 float
-3.000000 3.000000 9.000000 15.000000 21.000000 27.000000 33.000000 39.000000 45.000000 51.000000 57.000000 63.000000 69.000000 75.000000 81.000000 87.000000 93.000000 99.000000 105.000000 111.000000 117.000000 
123.000000 129.000000 135.000000 141.000000 147.000000 
Y_COORDINATES 26 float
-3.000000 3.000000 9.000000 15.000000 21.000000 27.000000 33.000000 39.000000 45.000000 51.000000 57.000000 63.000000 69.000000 75.000000 81.000000 87.000000 93.000000 99.000000 105.000000 111.000000 117.000000 
123.000000 129.000000 135.000000 141.000000 147.000000 
Z_COORDINATES 26 float
-3.000000 3.000000 9.000000 15.000000 21.000000 27.000000 33.000000 39.000000 45.000000 51.000000 57.000000 63.000000 69.000000 75.000000 81.000000 87.000000 93.000000 99.000000 105.000000 111.000000 117.000000 
123.000000 129.000000 135.000000 141.000000 147.000000 
CELL_DATA 15625
SCALARS FeatureIds int 1
LOOKUP_TABLE default
 32 32 54 54 54 54 54 30 30 30 30 30 30 7 7 7 7 7 7 31
 31 31 103 103 103 103 32 32 103 103 103 103 30 30 30 30 30 30 7 7
 7 7 7 7 7 31 31 103 103 103 103 103 103 103 103 103 103 30 30 30
 30 30 30 7 7 7 7 7 7 7 7 7 103 103 103 103 103 103 103 103
 103 103 49 49 49 71 71 71 7 7 7 7 7 7 7 7 7 103 103 103
 103 103 103 103 103 103 103 49 49 49 71 71 71 71 7 7 7 7 7 7
 7 7 103 103 103 103 103 103 103 103 103 101 49 93 93 71 71 71 71 71
 7 7 7 7 7 7 86 86 86 103 103 103 103 103 103 101 101 101 93 93
 93 71 71 71 71 71 39 39 39 7 7 86 86 86 86 86 103 103 103 101
 101 101 101 93 93 93 71 71 71 71 71 39 39 39 39 39 86 86 86 86
 86 103 103 103 101 101 101 93 93 93 93 71 71 71 71 71 39 39 39 39
 86 86 86 86 86 86 86 103 103 101 101 101 93 93 93 93 71 71 71 71
 71 71 39 39 39 86 86 86 86 86 86 86 103 12 12 12 12 76 93 48
 48 48 71 71 71 71 71 39 39 94 94 94 86 86 86 86 86 20 12 12
 12 12 76 76 48 48 48 61 61 61 61 61 39 39 94 94 94 94 94 86
 20 20 20 12 12 12 12 76 76 48 48 48 61 61 61 61 61 58 64 64
 64 64 64 64 64 20 20 20 20 12 12 12 76 76 48 48 48 48 61 61
 58 58 58 58 64 64 64 64 64 64 20 20 20 20 12 12 12 76 76 48
 48 48 48 61 58 58 58 58 58 64 64 64 64 64 63 20 20 20 20 20
 20 20 76 76 48 48 48 61 58 58 58 58 58 58 64 64 63 63 63 63
 63 20 20 20 20 20 20 20 19 19 19 19 61 58 58 58 58 58 58 63
 63 63 63 63 63 63 20 20 20 20 20 20 20 19 19 19 19 52 58 58
 58 58 58 63 63 63 63 63 63 63 63 63 20 20 20 20 20 20 19 19
 19 52 52 52 52 52 52 52 63 63 63 63 63 63 63 63 63 20 20 20
 20 20 20 30 19 19 52 52 52 52 52 52 52 63 63 63 63 63 63 63
 63 63 20 20 20 84 84 30 30 30 30 37 37 37 37 52 52 52 47 47
 63 63 63 63 63 63 63 54 54 54 84 84 30 30 30 30 37 37 37 37
 37 52 52 47 63 63 63 63 63 63 63 54 54 54 54 84 84 30 30 30
 30 30 37 37 37 37 37 37 63 63 63 63 63 63 63 63 54 54 54 54
 54 30 30 30 30 30 30 37 37 37 37 37 37 63 63 63 63 63 63 63
 103 54 54 54 54 54 30 30 30 30 30 30 30 37 37 37 37 37 63 63
 63 63 63 63 103 32 32 32 54 54 54 54 30 30 30 30 30 52 52 7
 7 7 7 7 7 7 57 103 103 103 32 32 32 32 54 54 54 30 30 30
 30 30 30 7 7 7 7 7 7 7 7 7 103 103 103 32 32 32 103 103
 103 49 49 49 49 49 30 7 7 7 7 7 7 7 7 7 7 103 103 103
 103 103 103 103 103 49 49 49 49 49 49 71 71 7 7 7 7 7 7 7
 7 7 103 103 103 103 103 103 103 103 49 49 49 49 49 71 71 71 71 7
 7 7 7 7 7 7 7 103 103 103 103 103 103 103 103 49 49 49 49 49
 71 71 71 71 71 7 7 7 7 7 7 86 86 103 103 103 103 103 103 101
 101 101 49 49 49 71 71 71 71 71 71 39 39 39 7 7 86 86 86 86
 86 103 103 103 101 101 101 49 49 49 71 71 71 71 71 71 39 39 39 39
 39 86 86 86 86 86 103 103 101 101 101 101 49 49 49 71 71 71 71 71
 71 39 39 39 39 39 86 86 86 86 86 86 103 101 101 101 101 49 49 49
 71 71 71 71 71 71 39 39 39 39 86 86 86 86 86 86 86 12 12 12
 12 12 49 48 48 48 48 48 71 71 71 39 39 39 39 94 86 86 86 86
 86 12 12 12 12 12 12 76 48 48 48 48 48 48 61 71 39 39 39 94
 94 94 94 94 86 12 12 12 12 12 12 12 76 76 48 48 48 48 48 48
 61 58 58 58 64 64 64 64 64 64 75 75 75 12 12 12 12 76 76 48
 48 48 48 48 58 58 58 58 58 17 17 17 17 17 17 75 75 75 12 12
 12 12 76 76 48 48 48 48 48 58 58 58 58 58 64 64 64 64 63 63
 75 75 75 75 12 20 20 76 76 48 48 48 48 58 58 58 58 58 58 63
 63 63 63 63 63 63 75 20 20 20 20 20 20 19 19 19 19 48 58 58
 58 58 58 58 63 63 63 63 63 63 63 63 20 20 20 20 20 20 19 19
 19 19 52 52 58 58 58 58 63 63 63 63 63 63 63 63 63 20 20 20
 20 20 20 19 19 19 19 52 52 52 52 52 52 63 63 63 63 63 63 63
 63 63 63 20 20 20 20 20 19 19 19 52 52 52 52 52 52 52 63 63
 63 63 63 63 63 63 63 63 54 84 84 84 84 30 30 52 52 52 52 52
 52 52 52 52 63 63 63 63 63 63 63 63 54 54 84 84 84 30 30 30
 52 52 52 52 52 52 52 52 52 63 63 63 63 63 63 63 54 54 54 54
 84 84 30 30 30 30 52 52 52 52 52 52 52 63 63 63 63 63 63 63
 54 54 54 54 54 54 54 30 30 30 30 30 52 52 52 52 52 52 52 63
 63 63 63 63 63 32 54 54 54 54 54 54 30 30 30 30 30 52 52 52
 52 52 52 52 63 63 63 63 63 103 32 32 54 54 54 54 54 30 30 30
 30 52 52 52 52 7 7 7 7 7 57 57 57 103 103 32 32 32 54 54
 54 49 49 49 49 30 52 52 52 7 7 7 7 7 7 57 57 57 103 32
 32 32 32 103 103 49 49 49 49 49 49 49 52 7 7 7 7 7 7 7
 7 57 57 103 103 103 103 103 103 49 49 49 49 49 49 49 49 71 7 7
 7 7 7 7 7 7 57 57 103 103 103 103 103 103 49 49 49 49 49 49
 49 71 71 71 7 7 7 7 7 7 7 7 21 103 103 103 103 103 103 49
 49 49 49 49 49 49 71 71 71 71 7 7 7 7 7 7 21 21 21 21
 21 103 103 49 49 49 49 49 49 49 49 71 71 71 71 71 39 39 39 7
 7 21 21 21 21 21 21 103 101 101 101 49 49 49 49 49 71 71 71 71
 71 39 39 39 39 21 21 21 21 21 21 21 21 101 101 101 49 49 49 49
 49 71 71 71 71 71 39 39 39 39 21 21 21 21 21 21 21 21 101 101
 49 49 49 49 49 71 71 71 71 71 71 39 39 39 39 21 21 21 21 21
 21 21 75 12 34 34 49 49 48 48 48 48 48 71 71 71 39 39 39 21
 21 21 21 21 21 86 12 75 12 12 12 12 48 48 48 48 48 48 48 48
 71 39 39 39 39 21 21 21 21 21 12 12 75 12 12 12 12 76 48 48
 48 48 48 48 48 48 58 58 58 17 17 17 17 17 105 75 75 75 75 12
 12 12 76 48 48 48 48 48 48 58 58 58 58 58 17 17 17 17 17 105
 75 75 75 75 75 12 12 76 48 48 48 48 48 48 58 58 58 58 58 58
 17 17 63 63 63 75 75 75 75 75 75 75 76 48 48 48 48 48 58 58
 58 58 58 58 63 63 63 63 63 63 63 75 75 75 75 75 20 19 19 19
 19 48 48 58 58 58 58 58 58 63 63 63 63 63 63 63 63 75 75 75
 75 20 19 19 19 19 19 52 52 52 58 58 58 63 63 63 63 63 63 63
 63 63 63 20 20 20 20 19 19 19 19 19 52 52 52 52 52 52 63 63
 63 63 63 63 63 63 63 63 20 20 20 84 102 19 19 19 52 52 52 52
 52 52 52 52 63 63 63 63 63 63 63 63 63 54 84 84 84 102 102 52
 52 52 52 52 52 52 52 52 52 63 63 63 63 63 63 63 63 54 54 54
 84 84 102 102 52 52 52 52 52 52 52 52 52 52 63 63 63 63 63 63
 63 54 54 54 54 84 102 102 102 52 52 52 52 52 52 52 52 52 52 63
 63 63 63 63 63 54 54 54 54 54 54 102 102 102 30 52 52 52 52 52
 52 52 52 52 63 63 63 63 63 63 32 54 54 54 54 54 102 102 30 30
 52 52 52 52 52 52 52 52 52 63 63 63 63 63 63 51 51 51 54 54
 54 49 49 49 30 52 52 52 52 56 56 56 7 7 7 57 57 57 57 51
 51 51 51 51 54 49 49 49 49 66 66 52 56 56 56 56 7 7 7 7
 57 57 57 57 51 51 51 51 51 49 49 49 49 49 66 66 66 56 56 7
 7 7 7 7 7 57 57 57 57 51 51 51 51 103 49 49 49 49 49 49
 49 49 49 7 7 7 7 7 7 7 7 57 57 57 103 103 90 103 49 49
 49 49 49 49 49 49 49 71 71 7 7 7 7 7 7 7 21 21 21 21
 21 90 90 49 49 49 49 49 49 49 49 71 71 71 71 81 7 7 7 7
 7 21 21 21 21 21 21 21 49 49 49 49 49 49 49 49 71 71 71 71
 81 81 81 81 81 21 21 21 21 21 21 21 21 49 49 49 49 49 49 49
 49 71 71 71 71 71 39 39 39 39 21 21 21 21 21 21 21 21 49 49
 49 49 49 49 49 49 71 71 71 71 71 39 39 39 21 21 21 21 21 21
 21 21 21 14 49 49 34 34 34 34 49 71 71 71 71 71 39 39 39 21
 21 21 21 21 21 21 21 21 14 34 34 34 34 34 48 48 48 48 71 71
 71 39 39 39 21 21 21 21 21 21 21 21 75 34 34 34 34 34 34 48
 48 48 48 48 48 48 48 39 39 21 21 21 21 21 21 105 75 75 75 12
 34 34 34 48 48 48 48 48 48 48 48 58 58 69 17 17 17 105 105 105
 75 75 75 75 75 75 12 76 48 48 48 48 48 48 48 58 58 58 69 17
 17 17 105 105 105 75 75 75 75 75 75 75 76 48 48 48 48 48 48 58
 58 58 58 58 58 17 17 105 105 105 75 75 75 75 75 75 75 75 48 48
 48 48 48 48 58 58 58 58 58 69 63 63 63 105 105 75 75 75 75 75
 75 75 19 19 19 19 48 48 48 58 58 58 58 69 69 63 63 63 63 63
 63 75 75 75 75 75 75 19 19 19 19 19 52 52 52 52 58 69 69 63
 63 63 63 63 63 63 63 63 75 75 102 102 102 19 19 19 52 52 52 52
 52 52 52 63 63 63 63 63 63 63 63 63 63 20 102 102 102 102 102 102
 52 52 52 52 52 52 52 52 52 63 63 63 63 63 63 63 63 63 54 102
 102 102 102 102 102 52 52 52 52 52 52 52 52 52 63 63 63 63 63 63
 63 63 54 54 54 102 102 102 102 102 52 52 52 52 52 52 52 52 52 63
 63 63 63 63 63 63 54 54 54 54 102 102 102 102 102 52 52 52 52 52
 52 52 52 52 63 63 63 63 63 63 63 54 54 54 54 54 102 102 102 52
 52 52 52 52 52 52 52 52 52 52 63 63 63 63 63 54 54 54 54 54
 54 102 102 102 52 52 52 52 52 52 56 56 56 56 56 9 9 9 9 9
 51 51 51 51 51 49 49 49 49 66 52 52 52 56 56 56 56 56 7 3
 57 57 9 9 51 51 51 51 51 51 49 49 49 49 66 66 52 56 56 56
 56 56 56 7 7 57 57 57 51 51 51 51 51 51 49 49 49 49 66 66
 66 66 56 56 56 56 56 7 7 81 57 57 57 51 51 51 51 51 51 49
 49 49 49 49 66 66 49 49 56 81 81 81 81 81 81 81 57 21 21 51
 90 90 90 49 49 49 49 49 49 49 49 49 49 81 81 81 81 81 81 81
 81 21 21 21 21 90 90 90 49 49 49 49 49 49 49 49 49 71 71 81
 81 81 81 81 81 81 21 21 21 21 21 90 90 49 49 49 49 49 49 49
 49 49 71 71 81 81 81 81 81 81 21 21 21 21 21 21 21 90 49 49
 49 49 49 49 49 49 71 71 71 71 81 81 81 81 81 21 21 21 21 21
 21 21 21 49 49 49 49 49 49 49 49 71 71 71 71 81 81 81 81 81
 21 21 21 21 21 21 21 14 14 49 34 34 34 34 34 49 71 71 71 71
 81 81 81 81 21 21 21 21 21 21 21 21 14 14 49 34 34 34 34 34
 48 48 48 71 71 71 81 81 81 21 21 21 21 21 21 21 21 75 14 34
 34 34 34 34 48 48 48 48 48 48 48 48 81 81 21 21 21 21 21 21
 105 21 75 75 75 34 34 34 34 48 48 48 48 48 48 48 69 69 69 69
 105 105 105 105 105 105 75 75 75 75 75 34 34 48 48 48 48 48 48 48
 58 69 69 69 69 105 105 105 105 105 105 75 75 75 75 75 75 48 48 48
 48 48 48 48 48 58 58 58 69 69 105 105 105 105 105 105 75 75 75 75
 75 75 75 48 48 48 48 48 48 48 69 69 58 69 69 105 105 105 105 105
 105 75 75 75 75 75 75 75 48 48 48 48 48 48 48 69 69 69 69 69
 105 105 105 105 105 63 75 75 75 75 75 102 102 19 19 19 52 52 52 52
 69 69 69 69 69 63 63 105 105 63 63 63 75 75 75 102 102 102 102 102
 52 52 52 52 52 52 52 69 69 69 63 63 63 63 63 63 63 63 10 102
 102 102 102 102 102 52 52 52 52 52 52 52 52 69 63 63 63 63 63 63
 63 63 10 102 102 102 102 102 102 102 52 52 52 52 52 52 52 52 52 63
 63 63 63 63 63 63 63 54 54 102 102 102 102 102 102 52 52 52 52 52
 52 52 52 52 29 63 63 63 63 63 9 9 54 54 102 102 102 102 102 102
 52 52 52 52 52 52 52 52 52 29 9 9 9 9 9 9 54 54 54 54
 102 102 102 102 102 52 52 52 52 52 52 56 56 56 9 9 9 9 9 9
 51 51 51 54 54 102 102 102 102 102 52 52 52 52 56 56 56 56 56 56
 9 9 9 9 9 51 51 51 51 51 51 49 49 49 49 52 52 56 56 56
 56 56 56 3 3 3 9 9 9 51 51 51 51 51 51 49 49 49 49 66
 66 66 56 56 56 56 56 56 3 3 3 3 9 51 51 51 51 51 51 49
 49 49 49 66 66 66 66 56 56 56 56 56 81 81 3 3 3 51 51 51
 51 51 51 51 49 49 49 49 66 66 66 66 66 81 81 81 81 81 81 81
 81 81 21 21 51 90 90 90 49 49 49 49 49 49 66 66 49 49 81 81
 81 81 81 81 81 81 21 21 21 21 90 90 90 49 49 49 49 49 49 49
 49 49 71 81 81 81 81 81 81 81 81 21 21 21 21 21 90 90 49 49
 49 49 49 49 49 49 49 71 81 81 81 81 81 81 81 21 21 21 21 21
 21 21 90 49 49 49 49 49 49 49 49 49 77 81 81 81 81 81 81 81
 21 21 21 21 21 21 21 14 14 89 49 49 49 49 49 49 77 77 77 81
 81 81 81 81 81 21 21 21 21 21 21 21 14 14 14 34 34 34 34 34
 77 77 77 77 71 81 81 81 81 81 21 21 21 21 21 21 21 14 14 14
 34 34 34 34 34 77 77 77 79 79 81 81 81 81 81 21 21 21 21 21
 21 21 14 14 34 34 34 34 34 34 48 48 48 79 79 79 81 81 81 81
 21 21 21 21 21 105 105 75 75 34 34 34 34 34 48 48 48 48 48 48
 48 69 69 69 69 105 105 105 105 105 105 105 75 75 75 34 34 34 48 48
 48 48 48 48 48 69 69 69 69 69 105 105 105 105 105 105 105 75 75 75
 75 75 34 48 48 48 48 48 48 48 69 69 69 69 69 105 105 105 105 105
 105 105 75 75 75 75 75 34 48 48 48 48 48 48 69 69 69 69 69 69
 105 105 105 105 105 105 105 75 75 75 75 75 68 68 48 48 48 48 48 69
 69 69 69 69 69 105 105 105 105 105 105 105 75 75 75 75 102 102 102 102
 48 48 48 48 69 69 69 69 69 69 69 105 105 105 105 105 105 75 75 75
 102 102 102 102 102 52 52 52 52 52 69 69 69 69 69 69 63 105 105 105
 63 63 10 10 10 102 102 102 102 102 52 52 52 52 52 52 69 69 69 69
 69 63 63 63 63 63 10 10 10 10 102 102 102 102 102 52 52 52 52 52
 52 52 52 69 29 63 63 63 63 63 9 9 10 10 10 102 102 102 102 102
 52 52 52 52 52 52 52 52 29 29 9 9 9 9 9 9 9 10 10 102
 102 102 102 102 102 52 52 52 52 52 52 52 52 29 29 9 9 9 9 9
 9 9 10 10 102 102 102 102 102 102 52 52 52 52 52 56 56 56 56 9
 9 9 9 9 9 9 51 51 51 102 102 102 102 102 102 52 52 52 56 56
 56 56 56 56 56 9 9 9 9 9 51 51 51 51 51 49 49 49 49 49
 49 52 56 56 56 56 56 56 3 3 3 9 9 9 9 51 51 51 51 51
 49 49 49 49 49 49 49 56 56 56 56 56 56 3 3 3 3 9 9 51
 51 51 51 51 49 49 49 49 49 66 66 66 56 56 56 56 81 81 81 3
 3 3 9 51 51 51 51 51 51 49 49 49 49 49 66 66 66 66 81 81
 81 81 81 81 81 81 81 21 21 51 90 90 90 49 49 49 49 49 49 49
 66 49 49 81 81 81 81 81 81 81 81 81 21 21 21 90 90 90 49 49
 49 49 49 49 49 49 49 49 81 81 81 81 81 81 81 81 21 21 21 21
 21 90 90 89 89 89 49 49 49 49 49 49 49 81 81 81 81 81 81 81
 81 21 21 21 21 21 21 90 89 89 89 89 49 49 49 49 77 77 81 81
 81 81 81 81 81 21 21 21 21 21 21 21 21 89 89 89 89 49 49 49
 77 77 77 77 81 81 81 81 81 81 21 21 21 21 21 21 21 14 14 89
 89 34 34 34 77 77 77 77 77 81 81 81 81 81 81 21 21 21 21 21
 21 21 14 14 89 34 34 34 34 77 77 77 77 79 79 81 81 81 81 81
 21 21 21 21 21 21 21 14 14 34 34 34 34 34 34 77 77 79 79 79
 79 69 69 69 81 21 21 21 21 105 105 105 14 33 33 34 34 34 34 48
 48 48 79 79 79 79 69 69 69 69 105 105 105 105 105 105 105 105 33 33
 46 34 34 48 48 48 48 48 48 69 69 69 69 69 69 105 105 105 105 105
 105 105 105 75 75 75 46 46 48 48 48 48 48 48 69 69 69 69 69 69
 105 105 105 105 105 105 105 105 75 75 75 75 68 68 68 48 48 48 69 69
 69 69 69 69 69 105 105 105 105 105 105 105 105 75 75 75 68 68 68 68
 68 48 48 69 69 69 69 69 69 69 105 105 105 105 105 105 105 75 75 75
 68 68 68 68 68 68 48 48 69 69 69 69 69 69 69 69 105 105 105 105
 105 105 10 10 10 68 68 68 68 68 68 68 52 69 69 69 69 69 69 69
 69 105 105 105 105 105 10 10 10 10 102 102 102 102 68 68 68 52 52 52
 69 69 69 69 69 69 69 105 105 63 9 10 10 10 10 102 102 102 102 102
 68 52 52 52 52 52 69 69 29 29 29 9 9 9 9 9 10 10 10 10
 102 102 102 102 102 102 52 52 52 52 52 52 29 29 29 29 9 9 9 9
 9 9 10 10 10 102 102 102 102 102 52 52 52 52 52 52 56 56 29 29
 29 9 9 9 9 9 9 10 10 10 102 102 102 102 102 52 52 52 52 56
 56 56 56 56 29 9 9 9 9 9 9 51 51 51 10 102 102 102 102 102
 52 52 52 56 56 56 56 56 56 3 9 9 9 9 9 9 51 51 51 51
 49 49 49 49 49 49 56 56 56 56 56 56 56 3 3 3 9 9 9 9
 51 51 51 51 51 49 49 49 49 49 49 56 56 56 56 56 56 81 3 3
 3 9 9 9 9 51 51 51 51 49 49 49 49 53 53 53 53 56 56 56
 81 81 81 81 3 3 3 9 9 51 51 51 51 49 49 49 49 49 53 53
 53 53 53 81 81 81 81 81 81 81 81 81 21 21 51 90 90 90 49 49
 49 49 49 49 53 53 49 49 81 81 81 81 81 81 81 81 81 21 21 21
 21 90 90 49 49 49 49 49 49 49 49 49 49 81 81 81 81 81 81 81
 81 81 21 21 21 21 21 90 89 89 89 89 49 49 49 49 49 81 81 81
 81 81 81 81 81 81 21 21 21 21 21 21 21 89 89 89 89 49 49 49
 77 77 77 81 81 81 81 81 81 81 81 21 21 21 21 21 21 21 89 89
 89 89 49 49 77 77 77 77 77 81 81 81 81 81 81 81 21 21 21 21
 21 21 89 89 89 89 89 34 34 77 77 77 77 77 77 81 81 81 81 81
 81 21 21 21 21 21 21 89 89 89 34 34 34 34 77 77 77 77 79 79
 81 81 81 81 81 81 21 21 21 21 105 105 105 33 33 34 34 34 34 77
 77 77 79 79 79 79 69 69 69 69 105 105 105 105 105 105 105 105 33 33
 46 46 46 34 87 87 87 79 79 79 69 69 69 69 69 105 105 105 105 105
 105 105 105 33 33 46 46 46 46 87 87 87 87 87 69 69 69 69 69 69
 105 105 105 105 105 105 105 105 75 33 46 46 46 46 87 87 87 87 87 69
 69 69 69 69 69 105 105 105 105 105 105 105 105 75 33 46 46 68 68 68
 87 87 87 69 69 69 69 69 69 69 69 105 105 105 105 105 105 105 75 75
 68 68 68 68 68 68 68 68 69 69 69 69 69 69 69 69 105 105 105 105
 105 105 105 75 68 68 68 68 68 68 68 68 68 69 69 69 69 69 69 69
 69 105 105 105 105 105 105 10 10 68 68 68 68 68 68 68 68 69 69 69
 69 69 69 69 69 69 105 105 105 105 105 10 10 10 10 68 68 68 68 68
 68 68 68 69 69 69 69 69 69 69 69 69 105 105 105 9 10 10 10 10
 102 102 102 68 68 68 68 68 52 69 69 69 69 29 29 29 9 9 9 9
 9 10 10 10 10 102 102 102 102 68 68 68 52 52 52 52 69 29 29 29
 29 9 9 9 9 9 9 10 10 10 102 102 102 102 68 68 52 52 52 52
 52 56 29 29 29 29 9 9 9 9 9 9 10 10 10 102 102 102 102 68
 68 52 52 56 56 56 56 56 29 29 9 9 9 9 9 9 9 51 10 10
 102 102 102 102 68 68 52 56 56 56 56 56 56 56 3 9 9 9 9 9
 9 9 51 51 51 49 49 49 49 49 53 56 56 56 56 56 56 56 3 3
 3 9 9 9 9 51 51 51 51 51 49 49 49 49 49 53 56 56 56 56
 56 81 81 81 3 3 9 9 9 9 51 51 51 51 49 49 49 49 53 53
 53 53 56 56 81 81 81 81 81 81 81 9 9 9 51 26 51 26 49 49
 49 49 49 53 53 53 53 81 81 81 81 81 81 81 81 81 81 9 26 26
 26 26 26 49 49 49 49 49 49 53 53 49 81 81 81 81 81 81 81 81
 81 81 21 21 21 21 90 26 89 89 49 49 49 49 49 49 49 81 81 81
 81 81 81 81 81 81 81 21 21 21 21 21 70 89 89 89 89 49 49 49
 49 49 81 81 81 81 81 81 81 81 81 81 21 21 21 21 21 70 89 89
 89 89 89 49 49 77 77 77 81 81 81 81 81 81 81 81 21 21 21 21
 21 21 70 89 89 89 89 89 49 77 77 77 77 77 81 81 81 81 81 81
 81 21 21 21 21 21 21 70 89 89 89 89 89 34 77 77 77 77 77 77
 81 81 81 81 81 81 21 21 21 21 21 21 70 89 89 89 34 34 34 77
 77 77 77 79 79 81 81 81 81 81 81 21 21 21 21 105 105 33 33 33
 33 34 34 34 87 87 87 79 79 79 79 69 69 80 80 80 105 105 105 105
 105 105 33 33 33 33 46 46 46 87 87 87 87 79 79 69 69 69 80 80
 80 105 105 105 105 105 105 105 33 33 46 46 46 87 87 87 87 87 87 69
 69 69 69 69 80 80 105 105 105 105 105 105 105 33 33 46 46 46 46 87
 87 87 87 87 69 69 69 69 69 69 69 105 105 105 105 105 105 105 33 33
 46 46 46 68 68 87 87 87 69 69 69 69 69 69 69 69 105 105 105 105
 105 105 105 33 33 68 68 68 68 68 68 68 68 69 69 69 69 69 69 69
 69 105 105 105 105 105 105 105 105 68 68 68 68 68 68 68 68 68 69 69
 69 69 69 69 69 69 105 105 105 105 105 105 10 10 68 68 68 68 68 68
 68 68 68 69 69 69 69 69 69 69 69 69 105 105 105 105 10 10 10 10
 68 68 68 68 68 68 68 68 68 69 69 69 69 69 69 69 69 105 105 105
 9 13 10 10 10 91 68 68 68 68 68 68 68 68 69 69 69 69 69 29
 29 9 9 9 9 9 13 10 10 10 91 68 68 68 68 68 68 68 68 52
 69 69 69 29 29 29 9 9 9 9 9 13 10 10 10 91 91 68 68 68
 68 68 68 52 52 56 69 69 29 29 29 9 9 9 9 9 9 10 10 10
 91 91 91 68 68 68 68 52 56 56 56 56 56 45 45 9 9 9 9 9
 9 9 10 10 10 91 91 91 68 68 68 68 56 56 56 56 56 56 45 45
 9 9 9 9 9 9 9 26 26 26 49 18 18 49 49 53 56 56 56 56
 56 56 45 45 45 45 9 9 9 9 26 26 26 26 26 49 18 18 49 49
 53 56 56 56 56 81 81 81 81 81 45 9 9 9 9 26 26 26 26 49
 49 18 18 18 18 53 53 56 56 81 81 81 81 81 81 81 81 9 9 26
 26 26 26 26 49 49 18 18 18 49 53 53 81 81 81 81 81 81 81 81
 81 81 81 26 26 26 26 26 26 49 49 49 49 49 49 53 41 81 81 81
 81 81 81 81 81 81 81 81 26 26 26 26 26 26 49 49 49 49 49 49
 49 41 81 81 81 81 81 81 81 81 81 81 21 26 26 26 26 70 70 89
 89 89 49 49 49 49 41 81 81 81 81 81 81 81 81 81 81 21 21 26
 26 70 70 70 70 89 89 49 49 49 77 77 77 81 81 81 81 81 81 81
 81 81 21 21 21 21 70 70 70 70 89 89 89 49 77 77 77 77 77 81
 81 81 81 81 81 81 21 21 21 21 21 70 70 70 70 89 89 89 34 77
 77 77 77 77 81 81 81 81 81 81 81 21 21 21 21 105 70 70 70 70
 89 34 34 34 77 77 77 87 79 79 81 81 81 81 81 104 104 104 21 21
 105 105 70 70 33 33 33 34 87 87 87 87 87 79 79 69 69 69 80 80
 80 104 104 105 105 105 105 33 33 33 33 33 46 87 87 87 87 87 87 69
 69 69 69 80 80 80 105 105 105 105 105 105 105 33 33 33 46 46 87 87
 87 87 87 87 69 69 69 69 80 80 80 105 105 105 105 105 105 105 33 33
 33 46 46 87 87 87 87 87 87 69 69 69 69 69 80 80 105 105 105 105
 105 105 105 33 33 46 46 46 68 68 87 87 87 69 69 69 69 69 69 69
 69 105 105 105 105 105 105 105 33 33 68 68 68 68 68 68 68 68 69 69
 69 69 69 69 69 69 105 105 105 105 105 105 105 92 92 68 68 68 68 68
 68 68 68 69 69 69 69 69 69 69 69 105 105 105 105 105 105 105 92 92
 92 68 68 68 68 68 68 68 69 69 69 69 69 69 69 69 69 105 105 105
 13 13 10 91 91 91 68 68 68 68 68 68 68 68 69 69 69 69 69 69
 69 69 105 105 105 13 13 10 91 91 91 91 68 68 68 68 68 68 68 69
 69 69 69 69 69 69 69 9 9 9 13 13 13 10 91 91 91 68 68 68
 68 68 68 68 52 69 69 69 45 45 45 9 9 9 9 9 13 10 10 91
 91 91 91 68 68 68 68 68 68 52 56 45 45 45 45 45 9 9 9 9
 9 9 10 10 91 91 91 91 68 68 68 68 68 68 56 56 45 45 45 45
 45 9 9 9 9 9 9 9 10 91 91 91 91 68 68 68 68 68 56 56
 56 56 45 45 45 45 9 9 9 9 26 26 26 26 26 18 18 18 18 18
 18 56 56 56 50 50 45 45 45 45 45 45 9 9 9 26 26 26 26 26
 18 18 18 18 18 18 41 50 50 50 50 81 81 45 45 45 45 26 26 26
 26 26 26 26 26 18 18 18 18 18 18 41 41 81 81 81 81 81 81 81
 81 81 26 26 26 26 26 26 26 26 18 18 18 18 18 41 41 41 81 81
 81 81 81 81 81 81 81 26 26 26 26 26 26 26 26 18 18 18 18 18
 41 41 41 82 82 82 81 81 81 81 81 81 26 26 26 26 26 26 70 70
 70 36 36 36 41 41 41 41 82 82 82 81 81 81 81 81 81 26 26 26
 26 26 70 70 70 70 36 36 36 41 41 41 41 82 82 82 81 81 81 81
 81 81 26 26 26 26 70 70 70 70 70 70 49 49 41 41 41 41 81 81
 81 81 81 81 81 81 81 26 26 26 26 70 70 70 70 70 70 70 49 77
 77 77 77 77 81 81 81 81 81 81 81 81 26 26 26 70 70 70 70 70
 70 70 70 34 77 77 77 77 77 81 15 15 15 15 81 81 104 21 21 21
 70 70 70 70 70 70 33 33 87 87 87 87 87 79 79 15 15 15 15 15
 104 104 104 104 104 95 95 70 70 70 33 33 33 87 87 87 87 87 87 87
 15 15 15 15 104 104 104 104 104 104 95 95 95 33 33 33 33 33 33 87
 87 87 87 87 87 69 69 69 80 80 80 104 104 105 105 95 95 95 33 33
 33 33 33 87 87 87 87 87 87 69 69 69 69 80 80 80 104 105 105 105
 105 95 95 33 33 33 33 33 33 87 87 87 87 87 69 69 69 69 69 69
 69 105 105 105 105 105 105 105 33 33 33 33 33 68 68 87 87 87 69 69
 69 69 69 69 69 69 69 105 105 105 105 105 105 92 33 33 68 68 68 68
 68 68 68 69 69 69 69 69 69 69 69 69 105 105 105 105 105 88 92 92
 92 68 68 68 68 68 68 68 69 69 69 69 69 69 69 69 69 105 105 105
 105 105 92 92 92 92 92 68 68 68 68 68 68 68 69 69 69 69 69 69
 69 69 105 105 105 13 91 91 91 92 92 92 68 68 68 68 68 68 68 69
 69 69 69 69 69 69 74 74 74 74 13 13 91 91 91 91 91 68 68 68
 68 68 68 68 69 69 69 69 69 69 74 74 74 74 74 13 13 91 91 91
 91 91 91 68 68 68 68 68 68 69 69 69 45 45 45 45 74 74 74 9
 9 13 91 91 91 91 91 91 68 68 68 68 68 68 68 45 45 45 45 45
 45 45 74 9 9 9 9 91 91 91 91 91 91 68 68 68 68 68 68 56
 45 45 45 45 45 45 45 9 9 9 9 9 9 91 91 91 91 91 68 68
 68 68 68 56 56 56 45 45 45 45 45 45 9 9 9 26 26 26 26 26
 18 18 18 18 18 18 41 50 50 50 50 50 45 45 45 45 45 45 9 26
 26 26 26 26 26 18 18 18 18 18 18 41 50 50 50 50 50 45 45 45
 45 45 26 26 26 26 26 26 26 26 18 18 18 18 18 18 41 41 41 50
 50 50 81 81 81 45 26 26 26 26 26 26 26 26 26 18 18 18 18 18
 41 41 41 41 82 81 81 81 81 81 81 26 26 26 26 26 26 26 26 26
 18 18 18 18 18 41 41 41 41 82 82 82 81 81 81 81 26 26 26 26
 26 26 26 26 70 70 36 36 36 41 41 41 41 82 82 82 82 81 81 81
 81 26 26 26 26 26 26 70 70 70 70 36 36 36 41 41 41 41 41 82
 82 82 81 81 81 81 26 26 26 26 26 70 70 70 70 70 70 36 36 41
 41 41 41 41 81 81 81 15 81 81 81 81 26 26 26 26 70 70 70 70
 70 70 70 36 41 41 41 41 41 15 15 15 15 15 81 81 73 73 73 26
 26 70 70 70 70 70 70 70 36 77 77 41 77 15 15 15 15 15 15 15
 15 104 73 73 73 73 70 70 70 70 70 70 70 87 87 87 87 87 87 15
 15 15 15 15 15 104 104 104 73 73 73 95 70 70 70 70 33 33 87 87
 87 87 87 87 87 15 15 15 15 15 104 104 104 104 73 95 95 95 33 33
 33 33 33 87 87 87 87 87 87 87 69 69 69 69 69 104 104 104 104 105
 95 95 95 95 33 33 33 33 87 87 87 87 87 87 69 69 69 69 69 69
 69 104 104 105 105 95 95 95 95 33 33 33 33 87 87 87 87 87 87 69
 69 69 69 69 69 69 69 105 105 105 105 105 95 88 88 33 33 68 68 68
 87 87 87 69 69 69 69 69 69 69 69 69 105 105 105 105 88 88 88 88
 88 68 68 68 68 68 68 68 69 69 69 69 69 69 69 69 69 42 105 105
 105 88 88 88 88 92 92 68 68 68 68 68 68 69 69 69 69 69 69 69
 69 42 42 105 105 105 88 88 88 92 92 92 68 68 68 68 68 68 68 69
 69 69 69 69 69 69 42 74 74 105 91 91 91 91 92 92 92 68 68 68
 68 68 68 68 69 69 69 69 69 69 74 74 74 74 74 13 13 91 91 91
 91 91 91 68 68 68 68 68 68 69 69 69 69 69 74 74 74 74 74 74
 13 13 91 91 91 91 91 91 68 68 68 68 68 68 69 69 69 45 45 45
 74 74 74 74 74 9 13 91 91 91 91 91 91 68 68 68 68 68 68 68
 45 45 45 45 45 45 74 74 74 74 9 9 91 91 91 91 91 91 91 68
 68 68 68 68 45 45 45 45 45 45 45 45 74 74 74 9 9 91 91 91
 91 91 91 91 68 68 68 68 68 45 45 45 45 45 45 45 45 74 74 9
 26 26 26 26 26 18 18 18 43 43 43 41 41 50 50 50 45 45 45 45
 45 45 45 26 26 26 26 26 26 26 18 18 18 18 43 43 41 41 50 50
 50 50 27 45 45 45 45 26 26 26 26 26 26 26 26 18 18 18 18 43
 41 41 41 41 50 50 27 27 27 27 27 26 26 26 26 26 26 26 26 26
 18 18 18 18 18 41 41 41 41 41 82 27 27 27 27 27 26 26 26 26
 26 26 26 26 26 26 18 18 18 41 41 41 41 41 82 82 82 27 27 27
 27 26 26 26 26 26 26 26 26 26 26 36 36 36 41 41 41 41 41 82
 82 82 82 27 27 27 26 26 26 26 26 26 26 70 70 70 36 36 36 41
 41 41 41 41 82 82 82 82 81 81 81 26 26 26 26 26 26 70 70 70
 70 70 36 41 41 41 41 41 41 82 15 15 15 81 81 81 73 73 73 26
 26 70 70 70 70 70 70 70 41 41 41 41 41 41 15 15 15 15 15 15
 73 73 73 73 73 73 70 70 70 70 70 70 70 41 41 41 41 41 41 15
 15 15 15 15 15 15 73 73 73 73 73 73 70 70 70 70 70 70 62 87
 87 87 87 28 15 15 15 15 15 15 104 104 73 73 73 73 73 70 70 99
 99 99 99 87 87 87 87 87 28 28 15 15 15 15 15 104 104 104 73 73
 95 95 95 70 99 99 99 99 87 87 87 87 87 87 28 69 15 69 69 104
 104 104 83 83 73 95 95 95 95 99 99 99 99 87 87 87 87 87 87 28
 69 69 69 69 69 69 104 83 105 73 72 72 72 99 99 99 99 99 87 87
 87 87 87 87 69 69 69 69 69 69 69 69 105 105 105 72 72 72 88 88
 88 88 68 68 68 87 87 87 69 69 69 69 69 69 69 69 42 42 42 105
 72 72 88 88 88 88 88 68 68 68 68 100 100 69 69 69 69 69 69 69
 42 42 42 42 42 72 88 88 88 88 88 92 68 68 68 68 100 100 69 69
 69 69 69 69 69 42 42 42 42 42 88 88 88 88 88 92 92 68 68 68
 100 100 100 100 69 69 69 69 69 69 42 42 42 42 42 88 88 88 88 92
 92 92 92 68 68 100 100 100 100 100 69 69 69 69 74 74 74 74 74 74
 88 88 91 91 91 91 91 91 68 68 100 100 100 100 100 69 69 69 74 74
 74 74 74 74 74 13 91 91 91 91 91 91 91 68 68 100 100 100 100 100
 69 69 45 45 74 74 74 74 74 74 9 91 91 91 91 91 91 91 91 68
 100 100 100 100 100 45 45 45 45 45 74 74 74 74 74 9 91 91 91 91
 91 91 91 91 68 68 100 100 100 100 45 45 45 45 45 45 74 74 74 74
 9 2 91 91 91 91 91 91 91 22 22 22 100 100 45 45 45 45 45 45
 45 45 74 74 74 26 26 26 26 26 26 18 18 43 43 43 43 41 41 50
 27 27 27 45 45 45 45 45 26 26 26 26 26 26 26 26 18 18 43 43
 43 43 41 41 27 27 27 27 27 27 27 27 26 26 26 26 26 26 26 26
 26 18 18 18 43 41 41 41 41 27 27 27 27 27 27 27 27 26 26 26
 26 26 26 26 26 26 18 18 18 41 41 41 41 41 27 27 27 27 27 27
 27 27 26 26 26 26 26 26 26 26 26 18 18 18 41 41 41 41 41 41
 27 27 27 27 27 27 27 26 26 26 26 26 26 26 26 26 36 36 41 41
 41 41 41 41 41 82 27 27 27 27 27 27 26 26 26 26 26 26 26 70
 70 70 36 41 41 41 41 41 41 41 82 82 27 27 27 27 73 73 26 26
 26 26 26 70 70 70 70 36 41 41 41 41 41 41 41 15 15 15 15 15
 73 73 73 73 73 73 26 26 70 70 70 70 70 41 41 41 41 41 41 15
 15 15 15 15 15 73 73 73 73 73 73 73 70 70 70 70 70 62 62 41
 41 41 41 16 15 15 15 15 15 83 83 73 73 73 73 73 73 73 70 70
 99 99 99 62 59 59 59 16 28 25 15 15 15 15 83 83 83 73 73 73
 73 73 73 70 99 99 99 99 99 59 59 28 28 28 28 15 15 15 15 83
 83 83 83 73 73 95 95 95 99 99 99 99 99 99 59 59 28 28 28 28
 28 28 15 15 83 83 83 83 83 73 95 95 95 99 99 99 99 99 99 87
 87 28 28 28 28 28 69 69 69 69 83 83 83 83 73 72 72 72 99 99
 99 99 99 99 87 87 28 28 28 28 28 69 69 69 69 69 83 83 83 73
 72 72 72 88 88 88 99 99 99 100 100 100 28 28 28 69 69 69 69 69
 42 42 42 42 42 72 72 88 88 88 88 99 99 100 100 100 100 100 28 69
 69 69 69 69 42 42 42 42 42 42 72 88 88 88 88 88 55 100 100 100
 100 100 100 100 100 69 69 69 69 42 42 42 42 42 42 88 88 88 88 88
 88 55 55 100 100 100 100 100 100 100 69 69 69 69 42 42 42 42 42 42
 88 88 88 88 88 55 55 55 100 100 100 100 100 100 100 100 69 69 74 74
 74 74 74 74 74 88 88 88 91 91 91 91 91 100 100 100 100 100 100 100
 100 69 69 74 74 74 74 74 74 74 13 91 91 91 91 91 91 91 100 100
 100 100 100 100 100 100 69 45 74 74 74 74 74 74 74 9 91 91 91 91
 91 91 91 91 100 100 100 100 100 100 100 45 45 45 74 74 74 74 74 74
 2 2 91 91 91 91 91 91 22 22 22 100 100 100 100 45 45 45 45 45
 74 74 74 74 74 2 2 2 91 91 91 91 91 22 22 22 22 100 100 100
 45 45 45 45 45 45 74 74 74 74 2 2 2 26 26 26 18 22 22 22
 22 22 22 27 27 27 27 27 27 27 27 27 26 26 26 2 2 2 26 26
 26 18 18 43 43 43 41 41 27 27 27 27 27 27 27 27 27 26 26 26
 26 26 26 26 26 26 18 18 18 43 41 41 41 27 27 27 27 27 27 27
 27 27 26 26 26 26 26 26 26 26 26 18 18 18 41 41 41 41 41 27
 27 27 27 27 27 27 27 26 26 26 26 26 26 26 26 26 18 18 18 41
 41 41 41 41 27 27 27 27 27 27 27 27 26 26 26 26 26 26 26 26
 26 26 36 41 41 41 41 41 41 27 27 27 27 27 27 27 27 26 26 26
 26 26 26 26 26 26 26 62 41 41 41 41 41 41 41 27 27 27 27 27
 27 73 73 73 26 26 26 26 26 26 26 62 62 41 41 41 41 41 41 41
 15 15 15 27 27 73 73 73 73 73 73 73 26 26 26 70 62 62 62 41
 41 41 41 41 41 15 15 15 15 73 73 73 73 73 73 73 73 26 70 70
 70 62 62 62 62 16 16 16 16 25 25 15 15 15 83 83 73 73 73 73
 73 73 73 99 99 99 99 99 62 59 59 59 16 16 25 25 25 15 15 83
 83 83 73 73 73 73 73 99 99 99 99 99 99 99 59 59 59 59 28 25
 25 25 25 15 83 83 83 83 73 73 73 73 99 99 99 99 99 99 99 59
 59 59 28 28 28 25 25 25 25 83 83 83 83 83 73 72 99 99 99 99
 99 99 99 99 99 28 28 28 28 28 28 25 25 25 83 83 83 83 83 73
 72 72 72 99 99 99 99 99 99 99 28 28 28 28 28 28 25 69 69 69
 83 83 83 83 73 72 72 72 88 88 99 99 99 99 100 100 100 28 28 28
 28 69 69 69 42 42 42 42 42 42 72 72 88 88 88 88 99 99 100 100
 100 100 100 28 28 28 69 69 69 42 42 42 42 42 42 72 88 88 88 88
 88 55 55 100 100 100 100 100 100 100 100 69 69 35 35 42 42 42 42 42
 88 88 88 88 88 55 55 55 100 100 100 100 100 100 100 100 69 69 69 42
 42 42 42 42 42 88 88 88 88 55 55 55 55 100 100 100 100 100 100 100
 100 100 69 74 74 74 74 74 74 74 88 88 40 40 55 55 55 100 100 100
 100 100 100 100 100 100 100 74 74 74 74 74 74 74 74 8 40 40 40 91
 91 91 91 100 100 100 100 100 100 100 100 4 74 74 74 74 74 74 74 74
 8 40 40 40 91 91 91 91 22 22 100 100 100 100 100 4 4 4 74 74