# vtk DataFile Version 2.0
Data set from IO Version 6.4.197.9a0dee2
ASCII

DATASET RECTILINEAR_GRID
DIMENSIONS 31 31 31
X_COORDINATES 31 float
-1.933334 1.933334 5.800001 9.666668 13.533335 17.400002 21.266668 25.133335 29.000002 32.866669 36.733337 40.600002 44.466671 48.333336 52.200005 56.066669 59.933338 63.800003 67.666672 71.533340 75.400009 
79.266670 83.133339 87.000008 90.866676 94.733345 98.600006 102.466675 106.333344 110.200012 114.066673 
Y_COORDINATES 31 float
-1.933334 1.933334 5.800001 9.666668 13.533335 17.400002 21.266668 25.133335 29.000002 32.866669 36.733337 40.600002 44.466671 48.333336 52.200005 56.066669 59.933338 63.800003 67.666672 71.533340 75.400009 
79.266670 83.133339 87.000008 90.866676 94.733345 98.600006 102.466675 106.333344 110.200012 114.066673 
Z_COORDINATES 31 float
-1.933334 1.933334 5.800001 9.666668 13.533335 17.400002 21.266668 25.133335 29.000002 32.866669 36.733337 40.600002 44.466671 48.333336 52.200005 56.066669 59.933338 63.800003 67.666672 71.533340 75.400009 
79.266670 83.133339 87.000008 90.866676 94.733345 98.600006 102.466675 106.333344 110.200012 114.066673 
CELL_DATA 27000
SCALARS FeatureIds int 1
LOOKUP_TABLE default
 348 348 354 354 354 108 108 320 320 320 320 320 325 325 325 154 154 154 154 154
 322 322 322 72 72 72 348 348 348 348 348 354 354 354 354 354 108 320 320 320
 320 320 325 325 325 325 154 154 154 154 322 322 322 322 72 72 348 348 348 348
 348 354 354 354 354 354 354 320 320 320 320 320 325 325 325 325 325 154 154 154
 322 322 322 322 116 116 116 348 348 348 134 134 354 354 354 354 320 320 320 320
 320 320 325 325 325 325 325 154 154 154 322 322 322 322 116 116 116 116 116 348
 134 134 134 134 198 198 198 320 320 320 320 152 152 325 325 325 325 325 154 154
 349 349 349 349 116 116 116 116 116 134 134 134 134 134 198 198 198 198 130 130
 152 152 152 152 152 325 325 325 30 30 349 349 349 349 116 116 116 116 116 134
 134 134 134 134 198 198 198 130 130 130 130 130 152 152 152 325 325 325 30 30
 30 349 349 349 116 116 116 116 116 134 134 134 134 134 198 198 198 130 130 130
 130 130 130 152 152 291 291 291 30 30 30 214 214 214 209 209 209 126 126 126
 126 134 207 207 207 178 178 130 130 130 130 130 130 130 291 291 291 291 291 30
 30 214 214 214 209 209 209 126 126 126 126 134 207 207 207 178 178 130 130 130
 130 130 130 130 291 291 291 291 291 291 30 214 214 214 214 209 214 126 126 126
 126 319 319 319 319 178 178 178 130 130 130 130 130 130 291 291 291 291 291 366
 366 214 214 214 214 214 214 237 126 126 265 319 319 319 319 178 178 178 130 130
 130 46 46 225 225 225 225 291 366 366 366 366 214 214 214 214 131 237 237 265
 265 319 319 319 319 319 178 178 230 230 46 46 46 225 225 225 225 225 366 366
 366 366 131 131 131 131 131 131 265 265 265 319 319 319 319 319 230 230 230 230
 46 46 46 163 225 225 225 225 173 366 173 173 131 131 131 131 131 131 265 265
 265 319 319 319 319 319 230 230 230 230 46 46 163 163 163 225 225 81 81 173
 173 131 131 131 131 131 131 131 265 265 265 319 319 319 319 319 230 230 230 230
 230 163 163 163 163 163 81 81 81 173 173 345 345 345 131 131 131 131 265 265
 265 319 319 319 319 319 230 230 230 230 230 163 163 163 163 163 81 81 81 81
 345 345 345 345 345 345 389 389 389 389 278 278 278 278 319 101 230 230 230 230
 230 156 156 163 10 10 10 81 148 148 345 345 345 345 345 345 389 389 389 389
 278 278 278 278 101 101 101 230 377 377 156 156 156 156 10 10 10 10 148 148
 148 345 345 345 345 345 389 389 389 389 278 278 278 278 101 101 101 377 377 377
 377 156 156 156 10 10 10 10 148 148 148 345 345 345 345 345 345 389 389 278
 278 278 278 278 101 101 101 377 377 377 377 156 156 156 10 10 10 10 148 148
 148 345 345 61 345 345 351 351 351 278 278 278 278 278 101 101 377 377 377 377
 377 377 156 156 10 10 10 10 148 148 148 345 61 61 61 345 351 351 351 278
 278 278 278 398 398 398 398 377 377 377 377 377 377 156 10 10 10 10 104 104
 148 61 61 61 61 61 351 351 351 351 375 184 184 398 398 398 398 377 377 377
 377 377 377 370 370 370 370 370 104 104 104 385 385 385 331 331 331 331 375 375
 375 184 184 184 398 398 398 377 377 377 377 377 219 219 370 370 370 370 104 104
 104 385 385 385 331 331 331 331 375 375 375 184 184 184 398 398 398 216 216 377
 87 87 219 219 370 370 370 370 104 104 104 385 385 385 331 331 331 331 375 375
 375 184 184 184 398 216 216 216 216 87 87 87 87 219 370 370 370 370 104 104
 104 385 385 385 331 331 331 331 375 375 375 184 184 184 216 216 216 216 216 87
 87 87 87 87 370 370 211 211 211 104 104 385 385 385 331 331 331 331 375 375
 375 141 354 354 108 108 108 216 216 87 87 87 87 87 370 370 211 211 211 211
 322 72 72 72 72 72 331 331 375 375 348 348 354 354 108 108 108 320 320 320
 320 87 87 87 154 154 154 154 154 154 322 322 72 72 72 72 72 348 348 348
 348 348 354 354 354 354 108 320 320 320 320 320 325 325 325 154 154 154 154 154
 154 322 322 72 72 72 348 348 348 348 348 348 354 354 354 354 354 320 320 320
 320 320 325 325 325 154 154 154 154 154 154 322 322 322 72 348 348 348 348 348
 348 348 354 354 354 354 273 320 320 320 320 320 325 325 325 325 154 154 154 154
 154 322 322 78 78 116 116 348 348 348 348 134 354 354 354 354 273 273 273 320
 320 380 380 325 325 325 325 154 154 154 154 322 78 78 78 116 116 116 348 348
 134 134 134 243 243 333 333 273 273 273 320 380 380 325 325 325 325 325 232 232
 349 349 349 78 78 116 116 116 116 348 134 134 134 243 333 333 333 273 273 130
 130 152 152 152 325 325 325 232 232 232 349 349 349 349 116 116 116 116 116 134
 134 134 134 134 333 333 333 130 130 130 130 130 152 152 152 325 232 232 232 232
 349 349 349 349 116 116 32 32 32 32 134 134 134 134 333 333 333 130 130 130
 130 130 130 152 152 291 291 291 232 30 30 214 214 214 214 214 32 32 32 32
 126 193 193 193 207 178 178 130 130 130 130 130 130 130 275 291 291 291 291 291
 30 214 214 214 214 214 32 32 126 126 193 193 193 193 207 178 178 130 130 130
 130 130 130 275 275 291 291 291 291 291 291 214 214 214 214 214 214 126 126 126
 193 193 319 319 319 178 178 178 174 174 174 174 130 275 275 291 291 291 291 291
 173 214 214 214 214 214 214 110 110 110 193 319 319 319 319 319 178 174 174 174
 174 46 46 225 225 225 225 291 291 366 173 173 214 214 214 131 131 110 110 110
 265 319 319 319 319 319 319 296 296 296 46 46 46 225 225 225 225 225 173 173
 173 173 131 131 131 131 131 131 110 110 265 319 319 319 319 319 319 230 230 46
 46 46 46 225 225 225 225 225 173 173 173 173 131 131 131 131 131 131 131 265
 265 319 319 319 319 319 319 230 230 230 46 46 46 163 225 225 225 173 173 173
 173 173 131 131 131 131 131 131 131 265 265 319 319 319 319 319 172 172 230 230
 230 46 163 163 163 225 225 81 173 173 173 173 345 345 131 131 131 131 131 265
 265 319 319 319 319 319 230 230 230 230 176 176 163 163 163 163 81 81 81 173
 345 345 345 345 345 345 345 389 389 389 278 278 22 22 101 101 101 230 230 230
 176 176 176 10 10 10 10 81 148 148 345 345 345 345 345 345 389 389 389 389
 278 278 22 22 101 101 101 77 77 77 77 176 156 10 10 10 10 10 148 148
 148 345 345 345 345 345 345 389 389 389 278 278 22 22 101 101 101 377 377 377
 377 156 156 10 10 10 10 10 148 148 148 345 345 345 345 345 345 389 389 278
 278 278 22 22 101 101 101 377 377 377 377 377 156 156 10 10 10 10 148 148
 148 148 345 345 345 345 345 351 351 278 278 82 82 22 101 101 377 377 377 377
 377 377 377 156 10 10 10 10 148 148 148 148 61 61 61 345 351 351 351 278
 375 82 82 252 252 252 208 377 377 377 377 377 377 228 228 228 228 104 104 104
 104 61 61 61 61 331 351 351 351 375 375 375 184 252 252 252 252 208 377 377
 346 346 377 228 228 228 228 104 104 104 104 385 385 385 385 331 331 331 375 375
 375 375 184 252 252 252 208 208 208 377 377 346 219 219 219 228 228 104 104 104
 104 385 385 385 385 331 331 375 375 375 375 375 184 184 252 252 208 208 208 55
 87 87 219 219 219 370 370 104 104 104 104 385 385 385 385 331 331 375 375 375
 375 375 184 184 48 48 216 216 55 55 87 87 87 219 219 370 370 104 104 104
 104 104 385 385 385 331 331 307 375 375 375 375 141 141 48 48 216 216 55 55
 87 87 87 87 370 370 211 104 104 104 104 104 385 385 385 331 307 307 307 375
 141 141 141 141 354 108 108 216 55 55 87 87 87 87 87 154 154 154 154 154
 104 104 72 72 72 307 307 307 307 307 348 141 141 354 354 108 108 320 320 320
 87 87 87 87 154 154 154 154 154 154 322 322 72 72 72 72 307 348 348 348
 348 141 141 141 165 165 165 165 320 320 320 320 380 325 154 154 154 154 154 154
 154 322 285 285 285 285 348 348 348 348 348 348 141 354 354 354 165 320 320 320
 320 380 380 380 325 154 154 154 154 154 154 322 78 78 78 78 348 348 348 348
 348 348 354 354 354 273 273 273 273 273 320 380 380 380 380 325 154 154 154 154
 154 322 78 78 78 78 348 348 348 348 348 348 328 243 243 273 273 273 273 273
 273 380 380 380 380 325 325 154 154 154 154 78 78 78 78 78 116 348 348 348
 328 328 328 243 243 243 273 273 273 273 383 380 380 380 380 325 325 232 232 232
 349 349 78 78 78 78 116 116 116 348 328 328 328 243 243 333 333 273 273 273
 383 383 380 380 380 325 232 232 232 232 349 349 349 78 78 32 32 32 32 328
 328 328 328 243 243 243 333 273 130 130 383 383 383 152 380 325 232 232 232 232
 349 349 349 78 78 32 32 32 32 32 328 328 328 328 243 243 333 130 130 174
 174 130 383 201 275 291 291 232 232 232 232 349 214 214 214 32 32 32 32 32
 193 193 193 193 193 178 174 174 174 174 174 174 130 275 275 291 291 291 291 291
 291 214 214 214 214 214 32 32 32 32 193 193 193 193 193 178 174 174 174 174
 174 174 174 275 275 275 291 291 291 291 291 214 214 214 214 214 214 32 110 110
 193 193 193 319 319 319 178 174 174 174 174 174 174 275 275 275 291 291 291 173
 173 214 214 214 214 214 110 110 110 110 193 319 319 319 319 319 319 174 174 174
 174 174 174 275 275 225 225 173 173 173 173 173 214 214 131 131 110 110 110 110
 193 319 319 319 319 319 319 296 296 296 46 46 46 225 225 225 225 173 173 173
 173 173 131 131 131 131 131 110 110 110 265 319 319 319 319 319 319 296 296 296
 46 46 46 225 225 225 225 173 173 173 173 173 131 131 131 131 131 131 110 110
 265 319 319 319 319 319 172 172 172 230 46 46 46 225 225 225 225 173 173 173
 173 173 173 131 131 131 131 131 131 265 319 319 319 319 319 319 172 172 172 176
 176 176 176 163 225 225 225 173 173 173 173 173 345 345 131 131 131 131 131 265
 390 319 319 319 319 319 172 172 172 176 176 176 176 176 163 163 225 173 173 173
 173 345 345 345 345 345 345 389 389 28 28 22 22 22 22 101 172 77 77 176
 176 176 176 176 10 10 10 10 148 148 345 345 345 345 345 345 345 28 28 28
 28 22 22 22 22 101 101 77 77 77 77 176 176 10 10 10 10 10 148 148
 148 345 345 345 345 345 345 28 28 28 28 22 22 22 22 101 101 77 77 77
 77 77 176 10 10 10 10 10 148 148 148 345 345 345 345 345 345 28 28 28
 82 82 22 22 22 101 101 377 377 377 377 377 377 10 10 10 10 10 148 148
 148 148 345 345 345 345 345 28 28 28 82 82 82 22 22 208 208 377 377 377
 377 377 377 10 10 10 10 10 148 148 148 148 345 61 345 345 351 351 28 28
 82 82 82 22 252 208 208 208 377 377 346 346 377 228 228 228 228 228 104 104
 104 104 385 385 385 385 351 351 375 375 375 375 82 252 252 252 208 208 208 377
 346 346 346 228 228 228 228 104 104 104 104 104 385 385 385 385 331 375 375 375
 375 375 375 252 252 208 208 208 208 208 377 346 219 219 228 228 228 104 104 104
 104 104 385 385 385 385 331 375 375 375 375 375 375 48 48 208 208 208 208 55
 55 87 219 219 219 228 228 104 104 104 104 104 385 385 385 385 307 307 375 375
 375 375 375 48 48 48 48 55 55 55 55 87 87 219 219 370 370 104 104 104
 104 104 385 385 385 307 307 307 307 375 375 141 141 141 48 48 48 55 55 55
 55 87 87 87 219 370 104 104 104 104 104 104 385 385 385 307 307 307 307 307
 141 141 141 141 165 165 165 55 55 55 55 87 87 87 87 154 154 154 104 104
 104 104 285 285 285 307 307 307 307 307 141 141 141 141 165 165 165 55 55 55
 55 87 87 87 154 154 154 154 154 154 104 285 285 285 285 307 307 307 348 348
 141 141 141 165 165 165 165 165 165 55 40 380 380 380 154 154 154 154 154 154
 154 285 285 285 285 285 323 323 348 348 348 141 141 165 165 165 165 165 40 40
 40 380 380 380 380 154 154 154 154 154 154 78 78 78 78 78 348 348 348 348
 348 348 141 354 165 273 273 273 273 273 40 380 380 380 380 380 154 154 154 154
 154 78 78 78 78 78 78 348 348 348 328 328 328 243 243 273 273 273 273 273
 40 380 380 380 380 380 154 154 154 154 78 78 78 78 78 78 78 348 348 348
 328 328 328 243 243 243 273 273 273 273 383 383 380 380 380 380 232 232 232 232
 78 78 78 78 78 78 32 32 348 328 328 328 328 243 243 243 243 273 273 273
 383 383 383 380 380 380 232 232 232 232 349 78 78 78 78 32 32 32 32 328
 328 328 328 243 243 243 243 243 130 383 383 383 383 201 201 232 232 232 232 232
 232 349 349 78 78 32 32 32 32 328 328 328 328 328 243 243 243 243 174 174
 174 174 201 201 201 275 232 232 232 232 232 349 24 214 214 32 32 32 32 32
 193 193 193 193 243 243 179 174 174 174 174 174 201 201 275 275 132 132 132 364
 364 214 214 214 214 32 32 32 32 32 193 193 193 193 193 179 179 174 174 174
 174 174 174 275 275 275 132 132 132 364 173 214 214 214 214 214 110 110 110 193
 193 193 193 319 319 319 179 174 174 174 174 174 174 275 275 275 132 132 132 173
 173 173 214 214 214 110 110 110 110 110 193 193 319 319 319 319 179 179 296 174
 174 174 174 275 275 275 173 173 173 173 173 173 214 214 131 110 110 110 110 110
 193 319 319 319 319 319 179 179 296 296 296 46 46 225 225 225 173 173 173 173
 173 173 173 131 131 131 110 110 110 110 319 319 319 319 319 319 319 172 296 296
 296 46 46 225 225 225 225 173 173 173 173 173 173 131 131 131 131 110 110 110
 319 319 319 319 319 319 172 172 172 172 46 46 46 225 225 225 173 173 173 173
 173 173 173 131 131 131 131 131 131 390 390 390 319 319 319 172 172 172 172 172
 176 176 176 176 225 225 173 173 173 173 173 173 173 131 131 131 131 131 131 390
 390 390 390 319 319 172 172 172 172 176 176 176 176 176 176 10 173 173 173 173
 173 345 345 345 345 345 131 28 28 28 28 390 22 22 22 22 172 172 77 77
 176 176 176 176 10 10 10 173 148 148 173 345 345 345 345 345 345 28 28 28
 28 22 22 22 22 22 101 77 77 77 77 176 176 176 10 10 10 10 148 148
 148 345 345 345 345 345 28 28 28 28 28 22 22 22 22 22 101 77 77 77
 77 77 176 10 10 10 10 10 148 148 148 345 345 345 345 345 28 28 28 28
 82 82 22 22 22 22 101 77 77 77 77 77 176 10 10 10 10 10 148 148
 148 148 345 345 345 345 28 28 28 28 82 82 82 22 22 208 208 208 377 377
 377 377 377 228 228 228 228 228 148 148 148 148 345 61 345 345 28 28 28 28
 82 82 82 22 22 208 208 208 208 377 377 377 377 228 228 228 228 228 104 104
 104 104 385 385 385 385 28 28 28 28 375 82 82 146 252 208 208 208 208 208
 377 377 228 228 228 228 228 104 104 104 104 104 385 385 385 385 331 375 375 375
 375 375 311 146 208 208 208 208 208 208 377 377 219 228 228 228 228 104 104 104
 104 104 385 385 385 385 307 375 375 375 375 375 311 48 48 48 208 208 208 55
 55 55 219 228 228 228 228 104 104 104 104 104 385 385 385 307 307 307 375 375
 375 375 48 48 48 48 48 55 55 55 55 55 87 338 338 228 362 104 104 104
 104 104 104 385 385 307 307 307 307 307 141 141 141 48 48 48 48 55 55 55
 55 87 87 338 338 362 362 362 104 104 104 104 104 285 307 307 307 307 307 307
 141 141 141 141 165 165 165 55 55 55 55 55 87 338 338 154 362 362 104 104
 104 104 285 285 285 307 307 307 307 307 141 141 141 141 165 165 165 165 55 55
 55 55 87 87 154 154 154 154 154 154 104 285 285 88 285 285 307 323 323 141
 141 141 141 165 165 165 165 165 40 40 40 40 380 380 380 154 154 154 154 154
 158 158 285 285 285 285 323 323 323 141 196 141 141 165 165 165 165 165 40 40
 40 40 380 380 380 380 154 154 154 154 158 158 78 78 78 78 348 348 196 196
 196 141 141 165 165 165 273 273 273 40 40 380 380 380 380 380 154 154 154 154
 158 78 78 78 78 78 78 196 196 196 328 328 328 243 243 273 273 273 273 273
 40 380 380 380 380 380 154 154 371 371 371 78 78 78 78 78 194 194 196 196
 328 328 328 243 243 243 273 273 273 273 383 383 380 380 380 380 380 232 371 371
 371 78 78 78 78 78 194 194 194 328 328 328 328 243 243 243 243 273 273 383
 383 383 380 380 380 380 232 232 371 371 371 371 78 78 78 32 32 32 194 328
 328 328 328 328 243 243 243 243 35 35 35 383 201 201 201 201 232 232 232 371
 371 371 24 24 24 32 32 32 32 328 328 328 328 328 243 243 243 35 35 35
 35 201 201 201 201 201 364 364 364 364 364 364 24 24 24 32 32 32 32 328
 193 193 193 328 243 145 179 174 174 174 174 174 201 201 201 275 132 364 364 364
 364 364 24 24 24 32 32 32 32 32 193 193 193 193 193 179 179 179 174 174
 174 174 201 275 275 275 132 132 364 364 364 364 214 214 214 110 110 110 110 193
 193 193 193 193 319 179 179 179 174 174 174 174 174 275 275 275 103 103 103 173
 173 173 214 214 214 110 110 110 110 110 86 86 86 319 319 179 179 179 179 174
 174 174 174 275 275 275 103 103 103 173 173 173 173 214 131 110 110 110 110 110
 86 86 319 319 319 179 179 179 179 296 174 174 174 225 225 225 103 103 173 173
 173 173 173 131 131 110 110 110 110 110 390 319 319 319 319 319 179 179 179 296
 195 195 195 195 225 225 173 173 173 173 173 173 173 131 131 131 110 110 110 110
 390 390 390 319 319 319 172 172 172 195 195 195 195 195 135 135 135 173 173 173
 173 173 173 131 131 131 131 131 110 390 390 390 390 390 319 172 172 172 172 195
 195 195 195 195 135 135 135 173 173 173 173 173 173 131 131 131 131 131 390 390
 390 390 390 390 319 172 172 172 172 176 176 176 176 176 135 135 135 173 173 173
 173 173 345 345 345 345 131 28 390 390 28 390 390 22 22 22 172 172 77 77
 176 176 176 176 5 5 5 5 173 173 173 345 345 345 345 345 28 28 28 28
 28 28 22 22 22 22 22 77 77 77 77 176 176 176 5 5 5 5 239 239
 239 345 345 345 345 345 28 28 28 28 28 28 22 22 22 22 22 77 77 77
 77 77 176 5 5 5 5 5 239 239 239 239 345 345 345 28 28 28 28 28
 28 82 22 22 22 22 22 77 77 77 77 77 176 5 5 5 5 5 239 239
 239 239 345 69 345 28 28 28 28 28 82 82 82 22 22 208 208 208 208 77
 77 77 228 228 228 228 228 228 239 239 239 239 365 69 205 28 28 28 28 28
 82 82 82 146 146 208 208 208 208 208 377 377 228 228 228 228 228 228 104 104
 104 104 205 205 205 205 28 28 28 28 82 311 146 146 146 208 208 208 208 208
 377 317 228 228 228 228 228 104 104 104 104 104 205 205 205 205 205 34 34 34
 311 311 311 146 146 208 208 208 208 208 208 317 228 228 228 228 228 104 104 104
 104 104 104 205 205 205 307 307 375 375 311 311 311 48 48 48 208 208 208 55
 55 55 338 228 228 228 228 104 104 104 104 104 104 205 205 307 307 307 307 307
 311 311 311 48 48 48 48 55 55 55 55 55 338 338 338 362 362 362 104 104
 104 104 104 385 385 307 307 307 307 307 141 141 141 48 48 48 165 165 55 55
 55 55 338 338 338 362 362 362 362 104 104 104 104 285 307 307 307 307 307 307
 141 141 141 165 165 165 165 165 55 55 55 55 338 338 338 362 362 362 362 104
 104 104 285 285 285 307 307 307 307 307 141 141 141 165 165 165 165 165 55 55
 55 55 338 338 338 154 362 362 362 158 158 158 285 285 285 285 307 323 323 141
 141 141 165 165 165 165 165 165 40 40 40 40 380 380 380 154 154 154 158 158
 158 158 158 158 158 158 50 323 196 196 196 141 165 165 165 165 165 165 40 40
 40 40 380 380 380 380 154 154 154 158 158 158 158 158 78 78 50 196 196 196
 196 196 328 165 165 165 273 273 40 40 40 40 380 380 380 380 324 324 324 158
 158 158 78 78 78 78 196 196 196 196 196 328 328 238 243 273 273 273 273 40
 40 373 380 380 380 380 318 371 371 371 371 78 78 78 78 78 194 194 196 196
 328 328 328 328 243 243 273 273 273 373 373 373 380 380 380 380 318 371 371 371
 371 371 78 78 78 194 194 194 194 194 328 328 328 328 243 243 243 145 35 35
 383 201 201 201 380 201 371 371 371 371 371 371 371 78 24 194 194 194 194 194
 328 328 328 328 243 243 145 145 35 35 35 201 201 201 201 201 364 364 371 371
 371 371 24 24 24 32 32 194 194 194 328 328 328 328 243 145 145 145 35 35
 35 201 201 201 201 201 364 364 364 364 364 364 24 24 24 32 32 32 194 194
 328 328 328 328 328 145 145 145 35 35 35 201 201 201 201 201 364 364 364 364
 364 364 24 24 24 32 32 32 32 194 193 193 193 193 193 179 179 179 179 174
 174 174 201 201 201 201 364 364 364 364 364 364 24 24 24 110 110 110 247 247
 247 86 86 86 179 179 179 179 179 174 174 174 174 275 275 103 103 103 103 364
 364 173 272 272 110 110 110 110 247 247 86 86 86 319 319 179 179 179 179 179
 174 174 41 41 275 103 103 103 103 173 173 173 173 395 395 110 110 110 110 247
 86 86 86 319 319 179 179 179 179 179 174 195 195 41 41 103 103 103 103 173
 173 173 173 395 395 395 110 110 110 110 390 390 390 390 390 179 179 179 179 179
 195 195 195 195 135 135 173 173 173 173 173 173 173 395 395 395 395 110 110 390
 390 390 390 390 390 390 172 172 172 195 195 195 195 195 135 135 135 173 173 173
 173 173 173 395 395 395 395 395 390 390 390 390 390 390 390 390 172 172 172 195
 195 195 195 195 135 135 135 173 173 246 173 173 173 395 395 395 395 395 390 390
 390 390 390 390 390 390 172 172 172 195 195 195 195 195 135 135 135 135 173 246
 173 173 345 125 125 125 125 28 390 390 390 390 390 390 390 358 358 358 77 77
 176 176 176 176 5 5 5 5 239 246 239 239 69 69 125 125 28 28 28 28
 28 28 390 22 22 358 358 358 77 77 77 176 176 5 5 5 5 5 239 239
 239 239 69 69 69 125 28 28 28 28 28 28 22 22 22 111 111 77 77 77
 77 77 176 5 5 5 5 5 239 239 239 69 69 69 69 69 28 28 28 28
 28 28 22 22 111 111 111 77 77 77 77 77 5 5 5 5 5 5 239 239
 239 239 69 69 69 28 28 28 28 28 28 28 82 111 111 111 111 208 208 77
 77 77 5 5 5 5 5 5 239 239 239 365 365 69 365 28 28 28 28 28
 82 82 146 146 146 111 208 208 208 208 317 317 317 228 228 228 228 228 104 104
 104 365 205 205 205 205 205 34 34 34 311 311 146 146 146 208 208 208 208 208
 317 317 317 228 228 228 228 104 104 104 104 104 205 205 205 205 205 34 34 34
 311 311 311 146 146 25 208 208 208 208 317 317 317 228 228 228 228 104 104 104
 104 104 205 205 205 205 205 204 34 34 311 311 311 311 25 25 25 208 208 55
 317 317 317 317 228 228 362 104 104 104 104 104 205 205 205 205 307 307 307 311
 311 311 311 311 48 165 165 55 55 55 55 55 338 338 338 362 362 362 362 104
 104 104 104 205 205 307 307 307 307 311 311 311 311 165 165 165 165 165 55 55
 55 338 338 338 338 362 362 362 362 104 104 158 158 158 158 307 307 307 307 307
 141 141 141 165 165 165 165 165 55 55 55 55 338 338 338 362 362 362 362 362
 158 158 158 158 158 307 307 307 307 307 141 141 141 165 165 165 165 165 165 55
 55 55 338 338 338 362 362 362 362 158 158 158 158 158 158 307 307 323 323 141
 141 141 165 165 165 165 165 165 165 40 40 40 373 380 380 324 324 324 158 158
 158 158 158 158 158 158 50 50 50 196 196 196 165 165 165 165 165 165 40 40
 40 373 373 380 380 324 324 324 324 158 158 158 158 158 158 158 50 50 196 196
 196 196 238 238 238 165 165 165 40 40 373 373 373 373 380 318 324 324 324 158
 158 158 158 158 158 158 50 196 196 196 194 328 238 238 238 238 273 273 273 373
 373 373 373 373 318 318 318 318 324 371 371 158 78 78 78 78 194 194 194 196
 194 328 328 238 238 243 149 149 373 373 373 373 373 373 380 318 318 318 371 371
 371 371 78 78 78 194 194 194 194 194 194 328 328 328 243 243 145 145 145 373
 373 373 373 201 201 318 318 371 371 371 371 371 24 24 24 194 194 194 194 194
 194 93 93 328 243 145 145 145 145 35 35 201 201 201 201 201 364 364 364 371
 371 371 24 24 24 32 194 194 194 194 93 93 93 93 93 145 145 145 145 35
 35 201 201 201 201 201 364 364 364 364 364 364 24 24 24 32 194 194 194 194
 93 93 93 93 93 145 145 145 145 35 35 201 201 201 201 201 364 364 364 364
 364 364 24 24 24 24 32 247 247 247 247 247 93 93 145 145 145 145 145 145
 174 257 201 201 201 201 364 364 364 364 364 364 24 24 24 220 220 247 247 247
 247 247 86 86 179 179 179 179 179 179 257 257 41 41 41 41 103 103 103 364
 272 272 272 272 220 220 220 220 247 247 86 86 86 23 23 179 179 179 179 179
 257 257 41 41 41 103 103 103 103 173 272 272 272 395 395 395 220 220 220 247
 86 86 23 23 23 179 179 179 179 179 179 257 41 41 41 41 103 103 103 173
 173 272 272 395 395 395 395 220 220 220 390 390 390 23 23 179 179 179 179 179
 195 195 233 233 233 233 103 173 173 173 173 173 272 395 395 395 395 395 220 390
 390 390 390 390 390 390 179 179 179 195 195 195 195 233 135 135 135 246 246 246
 246 246 395 395 395 395 395 395 395 390 390 390 390 390 390 390 172 172 195 195
 195 195 195 195 135 135 135 246 246 246 246 246 246 395 395 395 395 395 390 390
 390 390 390 390 390 390 358 172 172 195 195 195 195 195 135 135 135 246 246 246
 246 246 246 125 125 125 125 125 390 390 390 390 390 390 390 358 358 358 358 195
 195 195 195 5 5 5 5 5 246 246 246 246 69 69 125 125 125 125 28 28
 28 28 390 390 390 358 358 358 77 77 77 176 176 5 5 5 5 5 239 239
 239 69 69 69 69 125 125 28 28 28 28 28 28 111 111 111 358 358 77 77
 77 244 5 5 5 5 5 5 239 239 239 69 69 69 69 69 28 28 28 28
 28 28 28 111 111 111 111 111 77 77 77 244 5 5 5 5 5 5 239 239
 239 69 69 69 69 69 28 28 28 28 28 28 28 111 111 111 111 111 111 77
 317 317 244 5 5 5 5 5 239 239 365 365 365 365 365 365 28 28 28 28
 28 28 146 146 111 111 111 111 208 317 317 317 317 228 228 228 228 391 391 104
 365 365 365 365 365 365 204 34 34 34 34 311 146 146 111 111 111 111 208 208
 317 317 317 317 228 391 391 391 391 104 104 365 205 205 205 205 204 34 34 34
 311 311 311 311 25 25 25 25 208 317 317 317 317 317 391 391 391 391 391 104
 104 104 205 205 205 205 204 204 34 34 311 311 311 311 25 25 25 25 25 55
 317 317 317 317 391 391 391 391 391 104 104 104 205 205 205 204 204 204 204 311
 311 311 311 311 25 25 25 25 55 55 317 317 338 338 338 391 362 362 362 104
 104 158 158 158 205 204 204 204 204 311 311 311 311 311 165 165 165 165 165 55
 55 338 338 338 338 362 362 362 362 158 158 158 158 158 158 204 204 204 204 311
 311 311 311 165 165 165 165 165 165 55 55 338 338 338 338 362 362 362 362 158
 158 158 158 158 158 307 50 50 50 307 141 141 165 165 165 165 165 165 165 55
 55 338 338 338 338 362 362 362 158 158 158 158 158 158 158 158 50 50 50 50
 113 113 165 165 165 165 165 165 165 40 40 373 373 114 114 324 324 324 324 158
 158 158 158 158 158 158 50 50 50 113 113 113 238 238 165 165 165 165 40 373
 373 373 373 373 380 324 324 324 324 158 158 158 158 158 158 158 50 50 113 113
 113 238 238 238 238 165 165 149 40 373 373 373 373 373 318 318 318 324 324 158
 158 158 158 158 158 183 183 194 113 113 194 238 238 238 238 238 149 149 149 373
 373 373 373 373 318 318 318 318 324 158 158 158 158 158 158 183 183 194 194 194
 194 328 238 238 238 238 149 149 149 373 373 373 373 373 318 318 318 318 371 371
 371 371 158 78 183 183 194 194 194 194 194 93 93 238 238 145 145 145 145 373
 373 373 373 373 318 318 318 318 371 371 371 371 24 24 24 194 194 194 194 194
 93 93 93 93 93 145 145 145 145 168 168 168 201 201 201 123 123 364 364 364
 364 364 24 24 24 386 386 194 194 194 93 93 93 93 93 145 145 145 145 168
 168 168 201 201 201 201 123 364 364 364 364 364 24 24 24 386 386 194 194 194
 247 93 93 93 93 145 145 145 145 145 168 168 201 201 201 201 364 364 364 364
 364 364 24 24 24 24 247 247 247 247 247 247 93 93 145 145 145 145 145 145
 257 257 257 41 41 364 364 364 364 364 364 364 272 24 24 220 220 247 247 247
 247 247 23 23 23 179 179 179 179 257 257 257 41 41 41 41 364 364 364 364
 272 272 272 272 220 220 220 220 247 247 247 23 23 23 23 23 179 179 179 257
 257 257 41 41 41 41 103 103 103 364 272 272 272 395 395 395 220 220 220 220
 23 23 23 23 23 23 179 179 179 257 257 257 41 41 41 41 103 103 103 173
 272 272 272 395 395 395 395 220 220 220 390 23 23 23 23 23 179 179 179 159
 159 159 233 233 233 233 103 246 246 246 246 246 272 395 395 395 395 395 220 220
 390 390 390 23 23 23 23 286 286 159 159 159 159 233 233 135 135 246 246 246
 246 246 246 395 395 395 395 395 220 390 390 390 390 390 390 23 23 286 159 159
 159 159 159 159 135 135 135 246 246 246 246 246 246 395 395 395 395 395 390 390
 390 390 390 390 390 390 358 358 76 159 159 159 159 159 135 135 135 246 246 246
 246 246 246 125 125 125 125 125 347 390 390 390 390 390 390 358 358 358 76 159
 159 159 159 159 5 5 5 246 246 246 246 246 69 69 125 125 125 125 347 347
 28 390 390 390 390 358 358 358 76 76 159 159 244 5 5 5 5 5 239 239
 239 69 69 69 69 125 125 28 28 28 28 28 28 111 111 111 111 358 76 76
 244 244 244 244 5 5 5 5 239 239 239 69 69 69 69 69 28 28 28 28
 28 28 28 111 111 111 111 111 111 244 244 244 244 244 5 5 5 5 239 239
 365 365 69 69 69 69 28 28 28 28 28 28 28 111 111 111 111 111 111 111
 244 244 244 244 5 5 5 5 239 365 365 365 365 365 365 365 365 28 28 28
 28 28 146 111 111 111 111 111 111 317 317 317 317 244 391 391 391 391 391 365
 365 365 365 365 365 365 204 34 34 34 34 311 311 111 111 111 111 111 111 317
 317 317 317 317 391 391 391 391 391 186 365 365 365 365 365 204 204 34 34 34
 311 311 311 25 25 25 25 25 25 317 317 317 317 317 391 391 391 391 391 186
 186 365 365 205 205 204 204 204 34 34 311 150 311 311 25 25 25 25 25 54
 54 317 317 261 391 391 391 391 391 186 186 186 205 205 204 204 204 204 204 311
 311 311 311 311 25 25 25 25 54 54 54 54 54 261 261 261 391 391 391 186
 158 158 158 158 204 204 204 204 204 311 311 311 311 311 25 25 165 165 165 54
 54 54 261 261 261 261 261 261 362 158 158 158 158 158 158 204 204 204 204 204
 311 311 311 165 165 165 165 165 165 54 54 54 338 338 261 261 261 261 158 158
 158 158 158 158 158 204 50 50 50 204 311 311 165 165 165 162 165 165 165 55
 114 114 114 338 261 261 261 261 158 158 158 158 158 158 158 158 50 50 50 50
 113 113 113 165 165 162 165 165 361 361 114 114 114 114 114 324 324 324 158 158
 158 158 158 158 158 158 50 50 50 113 113 113 113 238 165 165 165 149 361 373
 373 373 114 114 114 324 324 324 324 158 158 158 158 158 158 158 50 113 113 113
 113 113 238 238 238 238 149 149 149 373 373 373 373 373 318 318 318 324 324 158
 158 158 158 158 158 183 183 183 113 113 113 113 238 238 238 238 149 149 149 373
 373 373 373 373 318 318 318 318 324 158 158 158 158 158 183 183 183 183 386 113
 386 386 238 238 238 149 149 149 149 149 373 373 373 373 318 318 318 318 318 371
 250 250 250 183 183 183 183 183 386 386 386 386 93 238 238 149 149 149 149 168
 168 373 373 373 318 318 318 318 123 371 250 250 250 250 386 386 386 386 386 386
 386 93 93 93 93 145 145 145 168 168 168 168 168 201 201 123 123 123 123 364
 364 250 250 250 250 386 386 386 386 386 93 93 93 93 93 145 145 145 168 168
 168 168 168 201 201 123 123 123 123 364 364 364 250 250 250 386 386 386 386 386
 247 93 93 93 93 145 145 145 145 168 168 168 168 201 266 123 123 123 364 364
 364 364 250 279 279 279 386 247 247 247 247 247 93 93 145 145 145 145 145 168