# vtk DataFile Version 2.0
Data set from IO Version 6.4.197.9a0dee2
ASCII

DATASET RECTILINEAR_GRID
DIMENSIONS 31 31 31
X_COORDINATES 31 float
-1.933334 1.933334 5.800001 9.666668 13.533335 17.400002 21.266668 25.133335 29.000002 32.866669 36.733337 40.600002 44.466671 48.333336 52.200005 56.066669 59.933338 63.800003 67.666672 71.533340 75.400009 
79.266670 83.133339 87.000008 90.866676 94.733345 98.600006 102.466675 106.333344 110.200012 114.066673 
Y_COORDINATES 31 float
-1.933334 1.933334 5.800001 9.666668 13.533335 17.400002 21.266668 25.133335 29.000002 32.866669 36.733337 40.600002 44.466671 48.333336 52.200005 56.066669 59.933338 63.800003 67.666672 71.533340 75.400009 
79.266670 83.133339 87.000008 90.866676 94.733345 98.600006 102.466675 106.333344 110.200012 114.066673 
Z_COORDINATES 31 float
-1.933334 1.933334 5.800001 9.666668 13.533335 17.400002 21.266668 25.133335 29.000002 32.866669 36.733337 40.600002 44.466671 48.333336 52.200005 56.066669 59.933338 63.800003 67.666672 71.533340 75.400009 
79.266670 83.133339 87.000008 90.866676 94.733345 98.600006 102.466675 106.333344 110.200012 114.066673 
CELL_DATA 27000
SCALARS FeatureIds int 1
LOOKUP_TABLE default
 275 275 275 275 353 353 353 353 353 353 52 219 219 219 202 202 17 17 17 17
 127 127 127 211 211 201 285 285 285 285 275 275 275 275 353 353 353 353 353 52
 52 78 78 202 202 202 202 202 237 237 237 127 127 127 201 201 201 285 285 275
 275 275 275 275 353 353 385 385 385 52 78 78 78 78 202 202 202 202 237 237
 237 237 40 40 40 201 201 285 28 28 28 275 275 275 385 385 385 385 385 385
 78 78 78 78 202 202 202 202 237 237 237 237 40 40 40 40 201 28 28 28
 28 275 275 322 322 322 385 385 385 300 78 78 78 32 32 32 32 32 237 237
 237 237 40 40 40 40 6 6 6 28 28 275 322 322 322 322 322 385 300 300
 300 78 78 32 32 32 32 32 237 237 237 4 40 40 40 6 6 6 6 28
 130 298 322 322 322 322 322 385 300 300 300 300 100 100 32 32 32 32 280 280
 4 4 4 4 40 6 6 6 6 6 130 298 298 322 322 322 322 57 57 57
 57 57 100 100 395 395 395 280 280 280 4 4 4 4 34 34 34 6 130 130
 130 130 130 329 322 322 322 57 57 57 57 38 395 395 395 395 395 280 280 280
 4 4 4 4 34 34 34 130 130 130 130 130 130 329 29 322 57 57 57 57
 57 38 395 395 395 395 395 280 280 280 280 4 4 72 34 34 34 72 130 130
 165 165 165 29 29 29 29 349 57 57 57 38 38 395 395 395 326 326 280 280
 317 317 317 72 72 72 72 72 130 165 165 165 29 29 29 29 29 29 57 57
 38 38 38 38 326 326 326 326 324 324 317 317 317 72 72 72 72 72 165 165
 165 165 29 29 29 29 29 29 29 38 38 38 38 7 326 326 326 324 324 324
 317 317 317 72 72 72 72 72 377 165 377 377 377 29 29 29 29 29 29 29
 38 38 7 7 7 326 324 324 324 220 220 317 317 72 72 72 72 377 377 377
 377 377 377 29 29 29 29 29 29 29 38 38 7 7 7 324 324 324 324 324
 220 220 373 373 373 373 373 377 377 377 377 377 377 29 29 29 29 29 29 29
 121 121 7 7 7 324 324 324 324 324 220 361 373 373 373 373 373 377 377 377
 377 377 377 29 29 29 29 29 29 121 121 121 121 121 7 146 146 146 105 105
 105 361 73 373 373 373 373 377 377 377 377 377 364 364 364 29 29 29 355 355
 121 121 121 90 90 146 146 146 105 105 105 105 73 373 373 373 268 268 377 377
 377 364 364 364 364 375 375 375 375 355 121 121 121 90 146 146 146 146 105 105
 105 105 188 188 188 188 268 268 268 377 377 364 364 364 364 375 375 375 375 355
 355 355 121 102 102 102 146 146 105 105 172 369 188 188 188 188 268 268 268 268
 297 297 364 364 364 375 375 375 375 355 355 136 102 102 102 102 102 102 102 172
 172 163 188 188 188 188 268 268 268 268 297 297 297 364 375 375 375 375 375 355
 12 12 102 102 102 102 102 102 102 48 163 163 163 163 188 188 289 289 289 289
 297 297 297 364 47 47 375 375 12 12 12 12 218 218 218 102 102 102 48 48
 48 163 163 163 163 163 289 289 289 289 306 297 297 47 47 47 47 375 12 12
 12 12 218 218 218 281 281 281 48 48 48 163 163 163 163 163 289 289 289 306
 306 306 306 47 47 47 47 47 12 12 12 12 218 218 281 281 281 281 48 48
 48 163 163 163 163 163 289 289 306 306 306 306 71 71 71 71 47 353 12 12
 12 111 111 111 281 281 281 281 48 48 69 163 163 163 163 163 289 306 306 306
 306 306 71 71 71 71 353 353 353 353 111 111 111 111 111 281 281 281 281 69
 69 69 69 69 163 306 306 306 306 306 306 71 71 71 71 71 353 353 353 353
 353 111 111 111 111 281 281 281 69 69 69 69 69 211 211 211 306 306 306 306
 306 71 71 71 71 353 353 353 353 353 219 219 111 111 111 111 17 17 17 69
 69 69 69 211 211 211 285 285 285 306 275 275 71 71 71 353 353 353 353 353
 219 219 219 111 111 17 17 17 17 17 69 69 69 211 211 211 285 285 285 285
 234 234 234 234 353 353 353 353 353 353 219 219 219 219 202 202 202 17 17 17
 127 127 127 127 127 127 285 285 285 285 275 275 275 275 353 353 353 353 353 353
 78 78 78 202 202 202 202 202 202 237 127 127 127 127 127 127 285 285 285 285
 28 275 275 275 385 385 385 385 385 385 78 78 78 78 202 202 202 202 237 237
 237 127 127 127 127 127 127 285 28 28 28 275 275 275 259 385 385 385 385 385
 78 78 78 78 202 202 202 202 237 237 237 237 127 40 40 127 127 28 28 28
 28 28 259 259 259 190 385 385 385 385 78 78 78 78 32 202 202 202 237 237
 118 118 118 40 40 127 6 6 28 28 28 28 259 259 190 190 190 385 385 385
 78 78 78 32 32 32 32 32 280 118 118 118 118 118 31 31 6 6 6 28
 130 130 259 259 259 190 259 259 300 300 300 78 395 100 32 32 32 280 280 280
 4 4 4 4 31 31 6 6 130 130 130 130 130 259 259 259 259 57 57 57
 57 395 395 395 395 395 395 280 280 280 4 4 4 4 4 34 130 130 130 130
 130 130 130 329 329 259 259 57 57 57 38 38 395 395 395 395 395 280 280 280
 280 4 4 4 34 34 34 130 130 130 130 130 130 329 124 124 124 57 57 57
 38 38 395 395 395 395 395 280 280 280 280 4 4 72 72 72 72 130 130 130
 130 130 130 124 124 124 124 349 57 38 38 38 38 395 395 395 326 326 315 315
 315 315 72 72 72 72 72 72 130 130 130 130 130 124 124 124 124 29 38 38
 38 38 38 38 326 326 326 326 315 315 315 315 72 72 72 72 72 72 130 130
 377 377 29 29 124 124 29 29 29 38 38 38 38 38 326 326 326 326 315 220
 315 315 72 72 72 72 72 72 377 377 377 377 334 29 29 29 29 29 29 38
 38 38 38 38 326 326 326 324 220 220 220 315 72 72 72 72 72 377 377 377
 377 377 334 334 29 29 29 29 29 38 38 38 38 38 326 326 324 324 324 220
 220 220 373 373 373 373 373 377 377 377 377 377 334 334 334 29 29 37 37 37
 121 121 121 121 62 62 324 324 324 220 220 361 73 373 373 373 373 377 377 377
 377 377 334 334 334 29 29 37 37 121 121 121 121 121 62 62 62 324 361 105
 361 361 73 373 373 373 373 377 377 377 377 377 364 364 364 29 29 37 355 355
 121 121 121 121 121 62 146 146 105 105 361 361 73 373 373 373 268 268 377 377
 377 377 364 364 364 375 375 375 355 355 121 121 121 121 121 146 146 146 105 105
 361 361 369 188 188 268 268 268 268 377 297 297 364 364 364 375 375 375 355 355
 355 355 67 67 67 102 146 367 105 172 172 369 369 188 188 188 268 268 268 268
 297 297 297 364 375 375 375 375 375 355 355 136 67 67 67 102 102 102 172 172
 172 172 369 188 188 188 268 268 268 268 297 297 297 297 375 375 375 375 375 355
 136 136 67 67 67 102 102 102 48 48 172 172 369 163 188 188 289 289 289 297
 297 297 297 297 375 375 375 375 12 12 136 136 218 218 218 218 102 115 48 48
 48 163 163 163 163 289 289 289 289 289 297 297 297 47 47 47 47 375 12 12
 12 218 218 218 218 218 281 115 48 48 48 163 163 163 163 289 289 289 289 289
 306 306 71 71 47 47 47 47 12 12 12 218 218 218 218 281 281 115 48 48
 48 163 163 163 163 289 289 289 289 306 306 71 71 71 71 71 47 96 96 12
 96 218 218 218 281 281 281 281 48 48 69 69 69 163 163 289 289 289 306 306
 306 71 71 71 71 71 353 353 353 96 96 111 111 111 111 281 281 281 69 69
 69 69 69 69 69 289 306 306 306 306 306 71 71 71 71 71 353 353 353 353
 111 111 111 111 111 281 281 17 69 69 69 69 69 69 211 211 285 285 306 306
 234 234 71 71 71 71 353 353 353 353 219 219 219 111 111 111 17 17 17 69
 69 69 69 211 211 211 285 285 285 306 234 234 234 71 71 353 353 353 353 353
 219 219 219 111 111 17 17 17 17 17 69 69 69 211 211 211 285 285 285 285
 234 234 234 234 365 353 353 353 353 353 219 219 219 219 202 202 202 256 256 127
 127 127 127 127 127 127 285 285 285 234 234 234 234 365 365 365 385 385 385 385
 219 78 219 219 202 202 202 256 256 127 127 127 127 127 127 127 127 285 285 234
 28 234 275 365 365 365 385 385 385 385 78 78 78 78 202 202 202 256 256 256
 127 127 127 127 127 127 127 285 28 28 28 28 275 259 259 259 385 385 385 385
 78 78 78 78 202 202 202 256 256 118 118 118 127 127 127 127 127 28 28 28
 28 28 259 259 259 259 259 385 385 385 78 78 78 78 371 371 371 256 118 118
 118 118 118 118 31 31 31 31 28 28 28 236 259 259 259 259 259 259 385 385
 78 78 78 371 371 371 371 371 118 118 118 118 118 118 31 31 31 6 28 28
 130 130 259 259 259 259 259 259 3 3 3 78 395 371 371 371 371 280 280 280
 118 118 118 118 31 31 31 130 130 130 130 130 130 259 259 259 259 259 3 3
 3 395 395 395 395 395 395 280 280 280 4 4 4 4 31 31 130 130 130 130
 130 130 329 329 329 259 259 3 38 38 38 38 395 395 395 395 395 280 280 280
 280 4 4 4 72 34 130 130 130 130 130 130 329 329 329 329 124 38 38 38
 38 38 38 395 395 395 395 280 280 280 280 315 4 72 72 72 72 130 130 130
 130 130 329 329 124 124 124 183 38 38 38 38 38 38 395 395 326 315 315 315
 315 315 72 72 72 72 72 130 130 130 130 130 329 124 124 124 124 183 183 38
 38 38 38 38 326 326 326 315 315 315 315 315 72 72 72 72 72 72 130 130
 377 377 124 124 124 124 124 183 183 38 38 38 38 38 326 326 326 326 315 315
 315 315 72 72 72 72 72 72 377 377 377 377 334 334 124 124 29 29 38 38
 38 38 38 38 326 326 326 326 315 220 315 315 72 72 72 72 72 377 377 377
 377 377 334 334 334 29 37 37 37 38 38 38 38 38 62 62 62 62 315 220
 220 73 73 373 373 373 373 377 377 377 377 377 334 334 334 334 37 37 37 37
 38 121 38 62 62 62 62 62 361 361 73 73 73 73 373 373 373 377 377 377
 377 377 334 334 334 334 37 37 37 37 121 121 121 62 62 62 62 361 361 361
 361 73 73 73 373 373 373 377 377 377 377 377 334 334 334 334 37 37 355 355
 121 121 121 121 62 62 62 361 361 361 361 361 73 73 373 373 268 268 377 377
 377 377 364 364 364 375 375 355 355 355 355 121 121 121 62 62 367 361 361 361
 361 361 369 369 268 268 268 268 268 377 297 297 297 364 375 375 375 355 355 355
 355 355 67 67 67 67 367 367 367 172 172 369 369 369 188 268 268 268 268 268
 297 297 297 364 375 375 375 375 355 355 355 136 67 67 67 67 67 367 172 172
 172 172 369 369 369 20 20 20 20 268 297 297 297 297 375 375 375 375 355 355
 136 136 67 67 67 67 102 115 172 172 172 172 369 369 188 20 20 20 20 297
 297 297 297 297 375 375 375 375 355 136 136 136 67 67 67 67 115 115 48 48
 48 172 88 88 88 289 289 289 289 289 297 297 297 297 47 47 375 96 96 96
 136 136 218 218 218 218 115 115 48 48 48 163 88 88 88 289 289 289 289 289
 26 26 26 26 71 142 96 96 96 96 96 218 218 218 218 218 115 115 48 48
 48 163 88 88 88 289 289 289 289 289 26 26 26 71 71 71 96 96 96 96
 96 96 218 218 281 281 281 115 48 48 69 69 69 88 88 289 289 289 289 306
 26 26 71 71 71 71 71 96 96 96 96 96 111 111 111 281 281 281 69 69
 69 69 69 69 69 89 89 306 306 306 234 234 71 71 71 71 353 353 96 96
 96 111 111 111 111 281 290 17 69 69 69 69 69 69 211 89 89 89 89 306
 234 234 71 71 71 71 353 353 353 353 219 219 219 111 111 290 17 17 132 69
 69 69 69 69 211 89 285 285 285 234 234 234 234 71 71 71 353 353 353 353
 219 219 219 111 111 17 17 17 17 132 69 127 127 127 127 127 285 285 285 234
 234 234 234 234 365 365 365 191 191 191 191 219 219 235 235 256 256 256 256 256
 127 127 127 127 127 127 89 89 89 234 234 234 234 365 365 365 365 191 191 191
 168 168 168 168 256 256 256 256 256 256 127 127 127 127 127 127 127 285 89 234
 234 234 234 365 365 365 365 385 385 385 168 168 168 168 168 256 256 256 256 256
 127 127 127 127 127 127 127 127 28 28 28 234 236 365 365 259 259 385 385 385
 168 168 168 168 371 371 256 256 256 256 118 118 127 127 127 127 127 127 28 28
 28 236 236 259 259 259 259 259 385 3 168 168 168 168 371 371 371 256 256 118
 118 118 118 118 31 31 31 31 28 43 236 236 236 259 259 259 259 259 3 3
 3 3 168 371 371 371 371 256 256 118 118 118 118 118 31 31 31 31 43 43
 130 236 236 259 259 259 259 259 3 3 3 3 3 371 371 371 371 371 280 118
 118 118 118 118 31 31 31 130 130 130 130 130 236 259 259 259 259 3 3 3
 3 3 395 395 395 371 371 280 280 280 118 118 118 118 31 31 130 130 130 130
 130 130 329 329 329 259 259 3 3 3 3 38 38 395 395 395 395 280 280 280
 280 4 4 94 72 130 130 130 130 130 130 130 329 329 329 329 183 3 38 38
 38 38 38 38 395 395 395 315 315 315 315 315 315 72 72 72 130 130 130 130
 130 130 329 329 329 124 183 183 183 38 38 38 38 38 38 395 315 315 315 315
 315 315 315 72 72 72 72 130 130 130 130 130 329 124 124 124 183 183 183 38
 38 38 38 38 38 326 326 315 315 315 315 315 315 72 72 72 72 130 130 130
 130 130 334 124 124 124 183 183 183 38 38 38 38 38 38 326 326 315 315 315
 315 315 315 72 72 72 72 72 130 130 377 377 334 334 334 124 37 37 38 38
 38 38 38 38 38 62 62 315 315 315 315 315 315 314 72 72 72 377 377 377
 377 334 334 334 334 334 37 37 37 38 38 38 38 38 62 62 62 62 315 315
 315 73 73 73 373 373 373 377 377 377 377 334 334 334 334 334 37 37 37 37
 38 38 38 62 62 62 62 62 361 361 73 73 73 73 73 373 373 377 377 377
 377 377 334 334 334 334 37 37 37 37 121 121 121 62 62 62 62 62 361 361
 361 73 73 73 73 373 373 377 377 377 377 377 334 334 334 334 37 37 355 355
 355 355 121 62 62 62 62 361 361 361 361 73 73 73 73 373 268 377 377 377
 377 377 87 87 87 279 279 355 355 355 355 355 121 67 62 62 367 367 361 361
 361 73 73 73 73 20 20 20 20 377 297 297 87 87 87 279 279 355 355 355
 355 355 67 67 67 67 367 367 367 172 172 369 369 369 369 20 20 20 20 20
 297 297 297 87 87 375 375 355 355 355 355 136 67 67 67 67 367 367 367 172
 172 369 369 369 369 20 20 20 20 20 297 297 297 87 87 142 375 355 355 355
 136 136 67 67 67 67 115 115 115 172 172 369 369 369 369 20 20 20 20 20
 297 297 297 142 142 142 142 96 96 136 136 136 67 67 67 67 115 115 115 48
 48 369 88 88 88 289 289 289 289 289 26 26 26 142 142 142 142 96 96 96
 96 136 67 67 67 67 115 115 115 48 48 369 88 88 88 289 289 289 289 289
 26 26 26 26 142 142 142 96 96 96 96 96 218 218 218 115 115 115 115 48
 48 88 88 88 88 289 289 289 289 289 26 26 26 26 71 142 96 96 96 96
 96 96 96 218 290 290 115 115 115 48 69 69 88 88 88 89 289 289 289 26
 26 26 26 71 71 71 96 96 96 96 96 96 96 290 290 290 290 115 115 69
 69 69 69 69 89 89 89 89 89 89 234 234 234 71 71 71 96 96 96 96
 96 96 96 290 290 290 290 290 132 69 69 69 69 69 89 89 89 89 89 89
 234 234 234 71 71 71 353 191 191 96 96 219 219 235 290 290 290 132 132 132
 69 69 69 69 89 89 89 89 89 89 234 234 234 234 71 71 191 191 191 191
 191 219 219 235 235 290 132 132 132 132 132 127 127 127 127 89 89 89 89 234
 234 234 234 365 365 365 191 191 191 191 191 250 235 235 235 256 256 256 256 256
 273 273 127 127 127 127 89 89 89 234 234 234 234 365 365 365 365 191 191 191
 250 250 168 168 235 256 256 256 256 256 127 127 127 127 127 127 127 89 89 167
 234 234 365 365 365 365 365 385 385 168 168 168 168 168 168 256 256 256 256 256
 127 127 127 127 127 127 127 127 167 167 43 236 236 365 365 365 259 259 385 168
 168 168 168 168 168 256 256 256 256 256 118 118 127 127 127 127 127 127 43 43
 43 236 236 236 259 259 259 259 3 168 168 168 168 168 371 371 256 256 256 118
 118 118 118 118 31 31 31 31 43 43 43 236 236 236 259 259 259 259 3 3
 3 168 168 168 371 371 371 256 83 118 118 118 118 118 31 31 31 31 43 43
 130 236 236 236 259 259 259 3 3 3 3 3 168 371 371 371 371 83 83 83
 118 118 118 94 31 31 31 31 43 43 130 130 236 236 259 259 259 3 3 3
 3 3 3 395 395 371 35 83 83 83 83 118 118 94 94 159 130 130 130 130
 130 130 329 329 329 259 259 3 3 3 3 3 38 38 38 35 35 35 83 83
 83 83 94 94 159 159 130 130 130 130 130 130 329 329 329 329 3 3 3 3
 38 38 38 38 38 35 35 35 315 315 315 315 159 159 159 159 130 130 130 130
 130 130 329 329 329 124 183 183 183 38 38 38 38 38 38 35 35 315 315 315
 315 315 315 159 159 159 357 130 130 130 130 130 329 329 124 124 183 183 183 38
 38 38 38 38 38 35 315 315 315 315 315 315 315 72 72 72 357 357 130 130
 130 130 334 334 124 124 183 183 38 38 38 38 38 38 38 326 315 315 315 315
 315 315 314 314 314 72 357 357 357 130 377 360 334 334 334 334 37 37 38 38
 38 38 38 38 38 62 62 315 315 315 315 315 314 314 314 314 357 357 377 377
 377 360 334 334 334 334 37 37 37 38 38 38 38 38 62 62 62 122 122 122
 122 73 314 314 314 314 373 377 377 377 360 360 334 334 334 334 37 37 37 37
 38 38 38 62 62 62 62 122 122 122 73 73 73 73 73 373 373 377 377 377
 360 360 334 334 334 334 37 37 37 37 355 355 149 62 62 62 62 62 361 361
 73 73 73 73 73 373 373 377 377 377 360 360 334 334 334 334 37 37 355 355
 355 355 355 23 23 23 23 361 361 361 361 73 73 73 73 73 20 20 377 377
 87 87 87 87 87 279 279 279 355 355 355 355 355 23 23 23 23 367 361 361
 361 73 73 73 73 20 20 20 20 377 87 87 87 87 87 279 279 279 355 355
 355 355 67 67 67 23 367 367 103 103 369 369 369 369 369 20 20 20 20 20
 87 87 87 87 87 279 279 279 355 355 355 136 67 67 67 67 103 103 103 103
 369 369 369 369 369 20 20 20 20 20 13 13 87 87 87 142 279 279 355 355
 136 136 67 67 67 67 103 103 103 103 369 369 369 369 369 20 20 20 20 20
 13 13 13 142 142 142 142 96 96 96 136 136 67 67 67 67 115 115 115 115
 369 369 88 88 88 20 114 114 114 114 13 13 13 142 142 142 142 96 96 96
 96 96 67 67 67 67 115 115 115 48 48 369 88 88 88 114 114 114 114 114
 26 26 26 142 142 142 142 96 96 96 96 96 96 218 67 115 115 115 115 115
 48 88 88 88 88 88 114 114 114 114 26 26 26 26 142 142 96 96 96 96
 96 96 96 96 290 290 290 115 115 115 69 88 88 88 89 89 89 89 89 89
 26 26 26 71 71 142 96 96 96 96 96 96 96 290 290 290 290 290 290 69
 69 69 69 89 89 89 89 89 89 89 234 234 234 234 71 271 96 96 96 96
 96 96 96 290 290 290 290 290 290 132 69 273 69 89 89 89 89 89 89 89
 234 234 234 234 71 71 191 191 191 96 96 96 235 235 290 290 290 132 132 132
 273 273 273 273 89 89 89 89 89 89 234 234 234 234 234 191 191 191 191 191
 191 191 235 235 235 290 132 132 132 132 273 273 273 127 127 89 89 89 89 89
 234 234 234 365 365 365 191 191 191 191 250 250 235 235 235 256 256 256 256 256
 273 273 127 127 127 127 89 89 89 167 234 234 234 365 365 365 365 191 191 191
 250 250 250 168 235 256 256 256 256 256 127 127 127 127 127 127 127 282 167 167
 167 234 365 365 365 365 365 191 191 168 168 168 168 168 168 256 256 256 256 256
 127 127 127 127 127 127 127 282 167 167 43 236 236 236 365 365 365 259 168 168
 168 168 168 168 168 256 256 256 256 256 118 127 127 127 127 127 138 43 43 167
 43 236 236 236 236 259 259 259 3 168 168 168 168 168 145 256 256 256 256 256
 118 118 118 118 31 31 31 43 43 43 43 236 236 236 236 259 259 3 3 3
 3 168 168 168 145 145 256 256 83 83 118 118 118 118 31 31 31 43 43 43
 43 236 236 236 236 259 259 3 3 3 3 3 3 3 145 145 145 83 83 83
 83 118 94 94 94 31 31 43 43 43 130 130 236 236 236 259 3 3 3 3
 3 3 3 3 35 35 35 83 83 83 83 83 94 94 94 159 159 130 130 130
 130 130 329 329 329 259 3 3 3 3 3 3 38 38 35 35 35 35 83 83
 83 83 94 94 159 159 159 130 130 130 130 130 329 329 329 329 3 3 3 3
 3 38 38 38 35 35 35 35 35 83 83 83 159 159 159 159 159 357 130 130
 130 130 329 329 329 124 183 3 3 38 38 38 38 38 35 35 35 35 315 315
 315 337 159 159 159 159 357 357 357 130 130 130 130 329 124 170 183 183 38 38
 38 38 38 38 38 35 35 35 315 315 315 337 337 159 159 357 357 357 357 357
 357 360 360 360 170 170 183 183 38 38 38 38 38 38 38 35 35 122 122 122
 122 337 314 314 314 357 357 357 357 357 360 360 360 360 334 170 170 37 38 38
 38 38 38 38 38 62 62 122 122 122 122 122 314 314 314 314 357 357 357 357
 360 360 360 334 334 334 37 37 37 38 38 38 149 149 149 62 62 122 122 122
 122 122 314 314 314 314 357 357 360 360 360 360 360 334 334 334 37 37 37 37
 38 149 149 149 149 62 62 122 122 122 122 73 73 73 73 362 357 377 360 360
 360 360 360 360 334 334 37 37 37 355 355 149 149 149 23 23 23 122 122 122
 73 73 73 73 73 73 73 377 360 360 360 360 360 87 87 279 279 279 279 355
 355 355 149 23 23 23 23 23 361 361 73 73 73 73 73 73 20 20 360 360
 360 87 87 87 87 279 279 279 279 355 355 355 23 23 23 23 23 103 103 103
 73 73 73 73 73 20 20 20 20 360 87 87 87 87 87 279 279 279 279 355
 355 355 260 23 23 23 103 103 103 103 53 53 369 369 369 20 20 20 20 20
 87 87 87 87 87 279 279 279 279 355 355 136 260 67 67 103 103 103 103 103
 53 369 369 369 369 20 20 20 20 20 13 13 87 87 87 142 279 279 355 355
 136 136 260 260 260 103 103 103 103 103 369 369 369 369 369 20 20 20 20 119
 13 13 13 142 142 142 142 142 96 96 96 96 260 260 260 103 103 103 103 103
 370 369 88 88 88 114 114 114 114 114 13 13 13 142 142 142 142 96 96 96
 96 96 260 260 260 260 115 115 115 370 370 370 88 88 88 114 114 114 114 114
 13 13 13 142 142 142 142 96 96 96 96 96 96 260 290 290 115 115 115 115
 370 370 88 88 88 114 114 114 114 114 26 26 26 142 142 142 96 96 96 96
 96 96 96 290 290 290 290 290 115 115 370 370 88 88 89 89 89 89 89 89
 59 59 59 142 142 271 96 96 96 96 96 96 96 290 290 290 290 290 290 290
 273 273 273 89 89 89 89 89 89 89 59 59 234 234 271 271 96 96 96 96
 96 96 96 290 290 290 290 290 290 132 273 273 273 89 89 89 89 89 89 89
 59 234 234 234 271 271 191 191 191 96 96 96 235 235 290 290 290 132 132 132
 273 273 273 273 89 89 89 89 89 89 234 234 234 234 234 191 191 191 191 191
 191 96 235 235 235 290 256 132 132 132 273 273 273 127 127 89 89 89 89 89
 167 234 76 76 76 365 191 191 191 191 250 250 235 235 235 256 256 256 256 256
 273 273 273 127 127 127 282 282 167 167 167 76 76 76 76 365 365 191 191 191
 250 250 250 391 391 256 256 256 256 256 127 127 127 127 127 127 282 282 167 167
 167 167 76 76 76 365 365 191 191 168 168 168 168 168 391 256 256 256 256 256
 95 127 127 127 113 113 282 282 167 167 167 236 236 236 236 365 365 147 168 168
 168 168 168 168 391 256 256 256 256 95 95 95 127 323 113 138 138 282 167 167
 43 236 236 236 236 236 259 3 3 168 168 168 168 168 145 145 256 256 95 95
 95 95 118 323 113 138 138 138 43 43 43 236 236 236 236 236 259 3 3 3
 3 168 168 145 145 145 145 256 95 95 95 95 118 94 113 138 138 43 43 43
 43 236 236 236 236 236 259 3 3 3 3 3 168 145 145 145 145 83 83 83
 83 83 94 94 94 159 159 43 43 43 130 236 236 236 236 236 3 3 3 3
 3 3 3 240 35 35 35 83 83 83 83 83 94 94 159 159 159 130 130 130
 130 130 236 236 236 236 3 3 3 3 3 3 38 35 35 35 35 35 83 83
 83 83 159 159 159 159 159 357 357 130 130 130 130 42 42 42 3 3 3 3
 3 3 38 38 35 35 35 35 35 83 83 337 159 159 159 159 159 357 357 357
 357 130 42 42 42 42 3 3 199 199 199 38 38 38 35 35 35 35 35 315
 337 337 337 159 159 159 357 357 357 357 357 130 360 42 42 170 170 183 199 199
 199 38 38 38 38 35 35 35 122 122 337 337 337 159 159 357 357 357 357 357
 357 360 360 360 170 170 170 170 38 38 38 38 38 38 38 35 35 122 122 122
 122 337 314 314 314 357 357 357 357 357 360 360 360 360 170 170 170 170 38 38
 38 38 149 149 149 149 122 122 122 122 122 122 314 314 314 357 357 357 357 357
 360 360 360 360 360 170 170 37 92 92 38 149 149 149 149 149 122 122 122 122
 122 122 314 314 314 357 357 357 360 360 360 360 360 360 360 170 37 92 92 92
 92 149 149 149 149 149 122 122 122 122 122 122 73 362 362 362 357 357 360 360
 360 360 360 360 360 360 37 92 92 92 92 149 149 149 149 23 23 122 122 122
 394 394 73 73 362 362 362 360 360 360 360 360 360 360 360 279 279 279 92 92
 92 149 149 23 23 23 23 23 394 394 394 394 73 73 73 362 362 360 360 360
 360 360 87 87 87 279 279 279 279 92 92 149 149 23 23 23 23 103 103 394
 53 53 53 53 53 112 112 20 360 360 119 87 87 87 87 279 279 279 279 355
 355 260 260 260 23 23 103 103 103 103 53 53 53 53 53 112 112 20 20 119
 119 119 87 87 87 279 279 279 279 355 355 260 260 260 260 103 103 103 103 103
 53 53 53 53 112 112 112 112 119 119 119 119 87 87 87 142 279 279 279 355
 136 260 260 260 260 260 103 103 103 103 53 53 53 53 112 112 112 112 119 119
 119 13 13 142 142 142 142 142 96 96 96 260 260 260 260 260 103 103 103 103
 370 370 370 370 112 112 114 114 114 119 13 13 13 142 142 142 142 96 96 96
 96 96 260 260 260 260 103 115 103 370 370 370 370 370 93 114 114 114 114 114
 13 13 13 142 142 142 142 96 96 96 96 96 96 260 260 290 290 196 196 370
 370 370 370 370 93 114 114 114 114 340 59 59 59 142 142 142 96 96 96 96
 96 96 96 96 290 290 290 290 290 370 370 370 370 9 89 89 89 89 89 89
 59 59 59 59 271 271 271 96 96 96 96 96 96 290 290 290 290 290 290 21
 21 21 21 9 89 89 89 89 89 59 59 59 59 271 271 271 271 96 96 96
 96 96 96 290 290 290 290 290 290 21 21 21 21 9 89 89 89 89 89 59
 59 59 59 59 271 271 271 96 96 96 96 96 235 235 290 290 290 290 132 132
 273 273 273 9 89 89 89 89 89 59 59 59 59 76 271 271 271 191 191 191
 191 96 235 235 235 290 256 256 256 256 273 273 273 127 89 89 89 89 89 59
 167 76 76 76 76 76 131 191 301 301 301 391 391 391 391 391 256 256 256 256
 273 273 273 127 127 282 282 282 282 167 167 76 76 76 76 76 76 301 301 301
 301 391 391 391 391 391 256 256 256 256 256 323 323 323 323 282 282 282 282 167
 167 167 76 76 76 76 147 147 301 301 168 168 391 391 391 256 256 256 256 95
 95 95 323 323 323 113 282 282 167 167 167 167 76 76 76 76 147 147 147 168
 168 168 168 391 391 256 256 256 95 95 95 95 323 323 113 113 113 282 167 167
 267 236 236 236 236 236 147 147 3 168 168 168 168 145 145 145 145 95 95 95
 95 95 323 323 323 113 113 113 167 267 267 236 236 236 236 236 236 3 3 3
 168 215 215 145 145 145 145 145 95 95 95 95 323 323 264 264 264 126 267 267
 267 236 236 236 236 236 3 3 3 3 3 3 240 240 145 145 145 145 95 95
 95 95 323 264 264 264 126 126 126 267 16 16 236 236 236 236 3 3 3 3
 3 3 240 240 240 240 240 83 83 83 83 83 159 159 159 159 126 126 126 267
 16 16 16 42 42 42 3 3 3 3 3 3 240 240 240 240 35 35 83 83
 83 159 159 159 159 159 159 357 357 357 16 16 16 42 42 42 3 3 199 199
 199 158 158 240 240 35 35 35 35 83 337 337 159 159 159 159 357 357 357 357
 357 16 42 42 42 42 42 199 199 199 199 158 158 158 35 35 35 35 166 166
 337 337 337 159 159 159 357 357 357 357 357 16 42 42 42 42 170 199 199 199
 158 158 158 158 302 302 302 35 166 166 337 337 337 159 159 357 357 357 357 357
 357 360 360 42 170 170 170 170 199 158 158 158 158 158 302 302 302 122 122 122
 337 337 337 337 357 357 357 357 357 357 360 360 360 360 170 170 170 170 199 158
 158 158 149 149 149 149 302 122 122 122 122 122 314 314 357 357 357 357 357 357
 360 360 360 360 360 170 170 170 92 92 92 149 149 149 149 149 122 122 122 122
 122 122 394 362 362 362 357 357 357 360 360 360 360 360 360 170 170 92 92 92
 92 149 149 149 149 149 149 122 122 122 394 394 394 362 362 362 357 357 360 360
 360 360 360 360 360 360 92 92 92 92 92 149 149 149 149 23 23 122 394 394
 394 394 394 362 362 362 362 360 360 360 360 360 360 360 360 360 92 92 92 92
 92 92 149 149 23 23 23 23 394 394 394 394 394 394 362 362 112 112 360 360
 360 360 360 87 87 279 279 92 92 92 92 92 149 23 23 23 23 23 394 394
 53 53 53 53 362 112 112 112 360 360 119 119 87 87 87 279 279 279 92 92
 92 260 260 260 23 23 23 103 103 53 53 53 53 53 112 112 112 112 119 119
 119 119 119 87 87 239 279 279 279 355 260 260 260 260 260 260 103 103 103 53
 53 53 53 53 112 112 112 112 119 119 119 119 119 87 239 239 239 279 279 96
 260 260 260 260 260 260 103 103 103 103 53 53 53 53 112 112 112 112 119 119
 119 119 119 142 142 142 142 96 96 96 96 260 260 260 260 260 103 103 103 370
 370 370 370 370 112 112 112 112 119 119 119 119 13 142 142 142 142 96 96 96
 96 96 260 260 260 260 196 196 196 370 370 85 370 370 93 93 93 114 119 119
 340 340 13 10 10 10 10 96 96 96 96 96 96 260 260 260 196 196 196 370
 370 370 370 93 93 93 93 114 340 340 340 59 59 10 10 10 10 96 96 96
 96 96 96 274 274 290 290 226 226 370 370 370 370 93 93 93 93 89 89 340
 59 59 59 271 271 271 271 96 96 96 96 96 274 274 274 290 290 226 226 21
 21 21 9 9 93 93 89 89 89 59 59 59 59 271 271 271 271 271 96 96
 96 96 274 274 274 290 290 226 226 226 21 21 9 9 9 89 89 89 89 59
 59 59 59 271 271 271 271 271 96 96 96 96 274 274 274 290 290 226 226 21
 21 21 21 9 9 89 89 89 89 59 59 59 59 76 271 271 271 191 191 191
 96 391 391 391 391 290 256 256 256 256 180 180 180 180 89 89 89 89 89 59
 177 177 76 76 76 76 131 131 301 301 301 391 391 391 391 391 256 256 256 256
 180 180 180 180 39 39 39 282 282 167 167 177 76 76 76 76 131 131 301 301
 301 391 391 391 391 391 256 256 256 256 180 323 323 323 323 39 282 282 282 167
 167 177 76 76 76 76 147 147 301 301 301 391 391 391 391 391 256 256 95 95
 95 323 323 323 323 323 282 282 167 167 167 318 318 318 318 147 147 147 147 301
 301 391 391 391 391 391 256 256 95 95 95 95 323 323 323 138 113 282 167 167
 267 318 318 318 318 318 147 147 147 168 215 215 215 145 145 145 145 95 95 95
 95 95 323 323 323 264 264 264 267 267 267 318 318 318 318 318 147 224 224 224
 215 215 215 215 145 145 145 145 95 95 95 95 323 323 264 264 264 126 267 267
 267 318 318 318 318 318 318 224 224 224 224 215 215 240 240 240 145 145 225 225
 225 95 323 264 264 264 126 126 267 267 16 16 318 318 318 318 224 224 224 224
 224 224 240 240 240 240 240 225 225 225 225 225 159 159 159 126 126 126 126 267
 16 16 16 318 318 318 224 224 224 224 224 224 240 240 240 240 240 35 225 225
 225 225 159 159 159 159 126 126 126 16 16 16 16 42 42 42 224 224 224 224
 224 158 158 240 240 240 35 35 166 166 166 337 159 159 159 159 357 357 357 357
 16 16 16 42 42 42 42 199 199 199 158 158 158 158 302 302 302 302 166 166
 166 337 337 159 159 357 357 357 357 357 357 16 42 42 42 42 42 199 199 199
 158 158 158 158 302 302 302 302 166 166 166 337 337 337 357 357 357 357 357 357
 357 360 360 42 42 170 170 144 144 158 158 158 158 158 302 302 302 302 166 166
 166 337 337 337 357 357 357 357 357 357 360 360 360 360 170 170 170 170 144 158
 158 158 158 149 149 302 302 122 122 122 122 122 337 314 357 357 357 357 357 357
 360 360 360 360 360 170 170 92 92 92 92 149 149 149 149 149 302 122 122 122
 122 394 394 362 362 362 357 357 357 360 360 360 360 360 360 170 92 92 92 92
 92 149 149 149 149 149 149 122 122 394 394 394 394 362 362 362 357 357 360 360
 360 360 360 360 360 360 92 92 92 92 92 50 50 149 149 149 23 394 394 394
 394 394 394 362 362 362 362 360 360 360 360 360 360 360 360 92 92 92 92 92
 92 50 50 50 23 23 23 23 394 394 394 394 394 394 362 362 112 112 360 360
 360 360 360 360 360 92 92 92 92 92 92 92 50 50 11 11 11 23 394 394
 394 394 53 394 112 112 112 112 112 360 119 119 119 87 239 239 92 92 92 92
 393 260 260 260 11 11 11 11 103 53 53 53 53 53 112 112 112 112 112 119
 119 119 119 87 239 239 239 393 393 393 393 260 260 260 260 11 11 11 103 53