# vtk DataFile Version 2.0
Data set from IO Version 6.4.197.9a0dee2
ASCII

DATASET RECTILINEAR_GRID
DIMENSIONS 31 31 31
X_COORDINATES 31 float
-1.933334 1.933334 5.800001 9.666668 13.533335 17.400002 21.266668 25.133335 29.000002 32.866669 36.733337 40.600002 44.466671 48.333336 52.200005 56.066669 59.933338 63.800003 67.666672 71.533340 75.400009 
79.266670 83.133339 87.000008 90.866676 94.733345 98.600006 102.466675 106.333344 110.200012 114.066673 
Y_COORDINATES 31 float
-1.933334 1.933334 5.800001 9.666668 13.533335 17.400002 21.266668 25.133335 29.000002 32.866669 36.733337 40.600002 44.466671 48.333336 52.200005 56.066669 59.933338 63.800003 67.666672 71.533340 75.400009 
79.266670 83.133339 87.000008 90.866676 94.733345 98.600006 102.466675 106.333344 110.200012 114.066673 
Z_COORDINATES 31 float
-1.933334 1.933334 5.800001 9.666668 13.533335 17.400002 21.266668 25.133335 29.000002 32.866669 36.733337 40.600002 44.466671 48.333336 52.200005 56.066669 59.933338 63.800003 67.666672 71.533340 75.400009 
79.266670 83.133339 87.000008 90.866676 94.733345 98.600006 102.466675 106.333344 110.200012 114.066673 
CELL_DATA 27000
SCALARS FeatureIds int 1
LOOKUP_TABLE default
 276 276 276 257 257 257 257 257 198 198 342 342 342 342 65 65 65 65 31 31
 31 31 210 210 210 210 210 210 276 276 276 276 276 257 257 257 257 257 257 257
 342 342 342 65 65 65 65 300 31 31 31 31 210 210 210 210 210 210 276 276
 276 276 276 276 257 257 257 257 257 257 342 342 342 65 65 65 65 65 362 362
 362 362 210 210 210 210 210 210 276 276 276 276 254 254 254 257 257 257 257 251
 251 251 65 65 65 65 65 362 362 362 362 362 210 210 210 210 210 210 276 276
 276 254 254 254 254 254 257 361 251 251 251 251 251 65 70 70 70 362 362 362
 362 362 210 210 210 210 210 210 276 276 276 254 254 254 254 254 361 361 361 251
 251 251 251 251 70 70 70 70 157 157 157 200 200 209 209 209 209 210 276 276
 48 254 254 254 254 254 361 361 361 251 251 251 251 251 70 70 70 157 157 157
 157 200 200 236 236 236 209 135 276 48 48 48 254 254 254 361 361 361 361 120
 120 60 60 60 70 70 70 157 157 157 157 200 200 236 236 236 135 135 135 48
 48 48 48 48 123 123 361 361 361 120 120 60 60 60 60 309 309 157 157 157
 200 200 200 236 236 236 135 135 135 135 48 48 48 48 120 120 120 120 120 120
 120 60 60 261 261 261 181 181 157 200 200 200 200 236 236 236 135 135 135 135
 208 208 208 208 208 120 120 120 120 120 120 120 261 261 261 261 181 181 181 200
 200 200 200 200 236 135 135 135 135 135 208 208 208 208 208 120 120 120 120 120
 120 120 261 261 261 261 181 181 181 200 200 200 200 200 135 135 135 135 135 135
 208 208 208 208 208 120 120 120 120 120 120 120 261 261 261 261 181 181 181 200
 95 95 95 200 356 356 135 135 135 135 208 208 208 208 208 120 120 120 120 364
 364 45 45 261 261 261 181 181 181 95 95 95 95 95 356 356 356 135 135 135
 208 208 208 208 71 71 13 13 13 364 364 45 45 261 261 261 181 181 95 95
 95 95 95 95 356 356 356 135 135 135 17 17 248 248 71 71 13 13 13 13
 13 45 45 45 261 261 97 97 124 124 124 124 124 124 356 356 356 17 17 17
 17 17 248 248 71 71 13 13 13 13 13 45 230 230 230 97 97 97 97 96
 124 124 124 124 356 17 17 17 17 17 17 17 17 248 71 71 13 373 373 373
 373 373 230 230 230 97 97 97 97 96 96 96 96 96 96 17 17 17 17 17
 17 17 17 248 71 71 373 373 373 373 373 373 230 230 230 97 97 97 97 96
 122 122 122 122 122 17 17 17 17 17 17 17 17 17 207 207 207 373 373 373
 373 373 230 230 230 97 97 97 97 122 122 122 122 122 122 253 17 17 17 17
 17 17 17 81 207 207 207 373 373 373 373 373 230 244 244 97 97 97 97 122
 122 122 122 122 253 253 253 253 17 17 81 81 81 81 81 207 207 207 373 373
 373 244 244 244 244 244 97 97 259 259 122 122 339 339 339 253 253 253 253 253
 81 81 81 81 81 207 207 207 174 174 174 244 244 244 244 244 244 259 259 259
 259 339 339 339 339 339 253 298 298 298 81 81 81 81 81 207 207 174 174 174
 174 244 244 244 244 244 244 259 259 259 259 339 339 339 339 339 298 298 298 298
 81 81 81 81 81 81 207 174 174 174 174 244 244 244 244 244 244 259 259 259
 259 339 339 339 339 339 163 163 163 163 81 81 81 81 81 50 50 50 174 174
 174 244 244 244 244 64 64 259 259 259 259 339 339 339 339 163 163 163 163 163
 66 66 66 66 50 50 50 50 50 174 174 244 244 64 64 64 64 64 259 259
 306 306 339 266 266 266 163 163 163 163 66 66 66 50 50 50 50 50 50 174
 342 342 342 64 64 64 64 64 31 31 306 306 266 266 266 266 210 163 163 66
 66 66 66 50 50 50 50 50 198 198 342 342 342 342 64 64 64 31 31 31
 31 306 266 266 266 210 210 210 276 276 276 276 276 50 257 257 257 198 198 198
 342 342 342 342 65 65 65 31 31 31 31 31 210 210 210 210 210 210 276 276
 276 276 276 257 257 257 257 257 257 257 342 342 342 342 65 65 65 65 31 31
 31 6 210 210 210 210 210 210 276 276 276 276 276 257 257 257 257 257 257 257
 342 342 342 65 65 65 65 65 31 31 31 6 210 210 210 210 210 210 276 276
 276 276 276 257 257 257 257 257 257 256 256 342 293 65 65 65 65 65 362 362
 362 362 210 210 210 210 210 210 276 276 276 276 276 254 257 257 257 257 257 251
 251 293 293 293 65 65 65 362 362 362 362 362 210 210 210 210 210 210 276 276
 276 276 254 254 254 254 257 257 257 251 251 251 251 293 293 70 70 362 362 362
 362 345 209 209 209 209 209 210 276 276 276 254 254 254 254 123 123 361 361 251
 251 251 251 293 70 70 70 157 157 157 157 157 209 209 209 209 209 209 147 276
 48 48 48 254 123 123 123 361 361 251 251 251 251 251 70 309 309 157 157 157
 157 200 236 236 209 209 209 223 147 48 48 48 48 48 123 123 123 361 120 120
 120 317 317 60 309 309 309 309 157 74 157 200 236 236 236 236 236 223 48 48
 48 48 48 48 123 123 123 120 120 120 120 120 60 60 309 309 309 309 157 157
 157 200 236 236 236 236 223 223 223 48 48 48 48 48 123 123 120 120 120 120
 120 120 261 261 261 309 309 309 309 157 200 200 236 236 236 236 135 135 135 135
 208 208 208 208 208 120 120 120 120 120 120 120 261 261 261 309 309 309 309 200
 200 200 200 236 236 135 135 135 135 208 208 208 208 208 208 120 120 120 120 120
 120 120 261 261 261 261 181 181 181 200 200 95 200 200 135 135 135 135 135 208
 208 208 208 208 208 120 120 120 120 120 120 45 261 261 261 261 181 181 56 95
 95 95 95 95 356 135 135 135 135 208 208 208 208 208 208 120 120 120 120 120
 45 45 45 261 261 261 181 181 56 95 95 95 95 95 356 135 135 135 135 135
 17 208 208 71 71 71 13 13 13 13 45 45 45 45 45 45 181 181 95 95
 95 95 95 95 11 11 11 135 135 17 17 17 17 71 71 71 13 13 13 13
 13 45 45 45 45 243 243 97 96 96 95 95 95 95 11 11 11 17 17 17
 17 17 17 71 71 71 13 13 13 13 13 45 230 230 230 243 97 97 96 96
 96 96 96 96 11 11 17 17 17 17 17 17 17 71 71 71 13 13 13 373
 373 373 230 230 230 230 97 97 96 96 96 96 96 96 96 17 17 17 17 17
 17 17 17 71 71 71 13 373 373 373 373 373 230 230 230 230 97 97 96 96
 96 96 96 96 96 17 17 17 17 17 17 17 17 17 207 207 207 373 373 373
 373 373 230 230 230 97 97 97 97 96 96 96 96 96 253 253 253 17 17 17
 17 17 81 201 201 207 207 207 373 373 373 373 230 230 244 267 267 267 267 96
 96 96 96 339 253 253 253 253 253 17 17 81 81 81 201 207 207 207 373 373
 373 244 244 244 244 244 267 267 267 259 259 339 339 339 339 253 253 253 253 253
 81 81 81 81 201 201 207 207 174 174 174 244 244 244 244 244 267 267 259 259
 259 339 339 339 339 339 253 298 298 298 81 81 81 81 81 201 207 174 174 174
 174 244 244 244 244 244 244 259 259 259 259 339 339 339 339 339 298 298 298 298
 81 81 81 81 81 201 207 174 174 174 174 244 244 244 244 244 321 259 259 259
 259 339 339 339 339 339 298 298 298 298 81 81 81 81 81 50 50 142 142 142
 174 244 244 244 244 244 321 321 321 259 259 339 339 339 339 339 163 163 163 163
 66 66 66 66 50 50 50 50 142 142 174 244 244 244 64 64 64 321 321 321
 259 306 266 266 266 266 163 163 163 66 66 66 66 50 50 50 50 50 142 142
 342 342 342 342 64 64 64 64 31 31 306 6 266 266 266 266 266 163 183 66
 66 66 66 50 50 50 50 50 198 342 342 342 342 342 342 64 64 31 31 31
 6 6 6 266 266 266 210 210 183 66 276 276 276 50 257 257 257 257 198 342
 342 342 342 342 342 65 65 31 31 31 6 6 6 210 210 210 210 210 276 276
 276 276 276 359 257 257 257 257 256 256 256 342 342 342 30 30 30 30 31 6
 6 6 6 210 210 210 210 210 276 276 276 276 276 257 257 257 257 257 256 256
 256 342 342 30 30 30 30 30 30 6 6 6 6 210 210 210 210 210 276 276
 276 276 202 202 257 257 257 257 256 256 256 293 293 293 30 30 30 30 30 362
 6 6 6 210 210 210 210 210 276 276 276 276 202 202 202 257 257 257 256 256
 256 293 293 293 293 30 30 30 362 362 345 345 209 209 209 209 209 210 276 276
 147 276 202 202 202 123 257 123 123 251 251 293 293 293 293 30 30 30 345 345
 345 345 209 209 209 209 209 209 147 147 147 48 48 254 123 123 123 123 123 251
 251 317 251 293 293 309 309 309 157 157 345 345 209 209 209 209 209 209 147 147
 48 48 48 123 123 123 123 123 361 317 317 317 317 317 309 309 309 309 157 157
 157 157 209 209 209 209 209 223 147 147 48 48 48 48 123 123 123 123 120 120
 317 317 317 317 309 309 309 309 157 157 157 157 236 236 236 209 223 223 223 48
 48 48 48 48 123 123 123 120 120 120 317 317 317 317 309 309 309 309 309 157
 157 157 236 236 236 236 223 223 223 48 48 48 48 48 123 123 120 120 120 120
 120 120 261 261 309 309 309 309 309 157 157 200 236 236 236 236 41 223 223 48
 208 208 208 208 123 120 120 120 120 120 120 120 261 261 261 309 309 309 309 200
 200 200 236 236 236 41 41 41 41 208 208 208 208 208 208 120 120 120 120 120
 120 45 261 261 261 261 56 56 56 56 95 95 95 236 236 41 41 41 41 208
 208 208 208 208 208 120 120 120 120 120 45 45 45 261 261 261 56 56 56 56
 95 95 95 95 11 11 41 41 41 208 208 208 208 208 208 120 120 120 120 45
 45 45 45 45 45 45 56 56 56 95 95 95 95 95 11 11 11 41 41 208
 17 208 208 71 71 71 13 13 13 13 45 45 45 45 45 45 56 56 56 95
 95 95 95 11 11 11 11 11 17 17 17 17 71 71 71 71 71 13 13 13
 45 45 45 45 45 243 243 243 96 96 96 95 95 11 11 11 11 11 17 17
 17 17 17 71 71 71 71 13 13 13 13 45 230 230 230 243 243 96 96 96
 96 96 96 96 11 11 11 17 17 17 17 17 17 71 71 71 71 13 13 13
 373 230 230 230 230 243 243 96 96 96 96 96 96 96 11 11 17 17 17 17
 17 17 17 71 71 71 71 373 373 373 373 230 230 230 230 230 97 97 96 96
 96 96 96 96 96 17 17 17 17 17 17 17 17 17 71 207 207 373 373 373
 373 230 230 230 230 267 267 267 267 96 96 96 96 96 253 253 253 17 17 17
 17 17 17 201 201 207 207 207 373 373 373 230 230 230 244 267 267 267 267 96
 96 96 96 96 253 253 253 253 253 17 17 81 81 201 201 207 207 207 207 373
 373 230 244 244 244 267 267 267 267 267 96 96 339 339 339 253 253 253 253 253
 81 81 81 81 201 201 207 207 174 174 174 244 244 244 244 244 267 267 267 259
 259 339 339 339 339 253 253 253 253 253 81 81 81 81 201 201 207 207 174 174
 174 244 244 244 244 244 267 267 259 259 259 339 339 339 339 339 298 298 298 298
 81 81 81 81 81 201 207 174 174 174 174 244 244 244 244 244 321 321 259 259
 259 339 339 339 339 339 298 298 298 298 81 81 81 81 81 50 50 142 142 142
 142 244 244 244 244 321 321 321 321 259 259 339 339 339 339 339 163 163 163 163
 66 66 66 50 50 50 50 142 142 142 151 151 151 244 244 321 321 321 321 321
 259 339 339 266 266 266 163 183 183 183 66 66 66 50 50 50 50 50 142 142
 151 151 151 342 64 64 321 321 321 321 6 6 6 266 266 266 183 183 183 183
 66 66 66 359 50 50 50 50 142 142 151 151 342 342 342 64 64 321 31 6
 6 6 6 266 266 266 183 183 183 183 276 276 359 359 257 257 257 257 257 342
 342 342 342 342 30 30 30 31 31 6 6 6 6 6 210 210 210 183 183 183
 276 359 359 359 359 257 257 257 256 256 256 342 342 30 30 30 30 30 30 6
 6 6 6 210 210 210 210 183 183 183 276 276 359 359 257 257 257 257 256 256
 256 342 293 30 30 30 30 30 30 6 6 6 6 210 210 210 210 210 276 276
 276 276 202 202 202 257 257 257 256 256 256 293 293 293 30 30 30 30 30 6
 6 6 6 209 209 209 209 210 276 276 276 202 202 202 202 202 257 257 256 256
 256 293 293 293 293 30 30 30 30 345 345 345 209 209 209 209 209 209 276 276
 147 202 202 202 202 123 123 123 256 256 256 293 293 293 293 30 30 309 345 345
 345 345 209 209 209 209 209 209 147 147 147 48 48 202 123 123 123 123 123 317
 317 317 293 293 293 309 309 309 309 345 345 345 209 209 209 209 209 209 147 147
 48 48 48 123 123 123 123 123 123 317 317 317 317 317 309 309 309 309 309 157
 345 345 209 209 209 209 209 223 147 147 48 48 48 48 123 123 123 123 120 317
 317 317 317 317 309 309 309 309 309 157 157 157 209 209 209 209 223 223 223 48
 48 48 48 48 123 123 123 123 120 120 317 317 317 317 309 309 309 309 309 309
 157 236 236 236 236 236 223 223 223 48 48 48 48 48 123 123 123 120 120 120
 120 317 317 261 309 309 309 309 309 309 309 200 236 236 236 236 41 223 223 48
 48 48 48 48 123 123 120 120 120 120 120 45 45 45 309 309 309 56 56 309
 185 185 236 236 236 41 41 41 41 41 208 208 208 208 208 120 120 120 120 358
 358 45 45 45 45 309 56 56 56 56 185 95 95 236 41 41 41 41 41 41
 208 208 208 208 208 120 120 120 120 358 45 45 45 45 45 45 56 56 56 56
 95 95 95 11 11 11 41 41 41 41 208 208 208 208 71 71 120 13 13 45
 45 45 45 45 45 45 56 56 56 95 95 95 95 11 11 11 11 41 41 41
 17 208 208 71 71 71 13 13 13 45 45 45 45 45 45 243 243 243 56 95
 95 95 95 11 11 11 11 11 11 17 17 17 71 71 71 71 71 13 13 13
 45 45 45 45 243 243 243 243 96 96 96 95 28 28 11 11 11 11 17 17
 17 17 17 71 71 71 71 13 13 13 13 45 45 243 243 243 243 243 96 96
 96 96 96 28 11 11 11 17 17 17 17 17 17 71 71 71 71 13 13 13
 79 230 230 230 243 243 243 243 96 96 96 96 96 96 11 11 17 17 17 17
 17 17 17 71 71 71 71 373 373 373 373 230 230 230 243 243 243 243 96 96
 96 96 96 96 96 11 17 17 17 17 17 17 17 17 71 207 29 29 373 373
 373 230 230 230 243 243 267 267 267 96 96 96 96 96 96 253 253 17 17 17
 17 17 17 201 201 207 207 207 207 373 373 230 230 230 244 267 267 267 267 267
 96 96 96 96 253 253 253 253 17 17 17 387 81 201 201 201 207 207 207 373
 373 230 230 244 244 267 267 267 267 267 96 96 339 175 253 253 253 253 253 17
 81 81 81 201 201 201 207 207 207 174 174 101 244 244 244 267 267 267 267 267
 259 339 339 339 339 253 253 253 253 253 81 81 81 81 201 201 207 207 174 174
 174 244 244 244 244 244 267 267 267 259 259 339 339 339 339 339 253 298 298 298
 81 81 81 81 81 201 207 182 174 174 174 244 244 244 244 321 321 321 321 259
 259 339 339 339 339 339 298 298 298 298 219 219 219 81 81 50 182 182 142 142
 151 151 244 244 244 321 321 321 321 321 259 339 339 339 339 197 197 183 183 183
 219 219 219 359 50 50 182 182 142 142 151 151 151 244 244 321 321 321 321 321
 321 6 339 266 266 197 183 183 183 183 183 66 359 359 50 50 50 182 182 182
 151 151 151 151 151 321 321 321 321 321 6 6 6 266 266 266 183 183 183 183
 183 359 359 359 359 50 50 282 182 182 151 151 151 151 30 30 321 321 321 6
 6 6 6 6 266 266 183 183 183 183 183 359 359 359 359 359 257 282 282 256
 342 342 342 342 30 30 30 30 6 6 6 6 6 6 210 210 183 183 183 183
 359 359 359 359 359 359 282 282 282 256 256 342 342 30 30 30 30 30 338 338
 6 6 6 6 210 210 169 169 169 169 169 359 359 359 359 359 257 282 256 256
 256 256 293 30 30 30 30 30 338 338 6 6 6 206 206 210 169 169 169 169
 169 276 202 202 202 257 257 257 256 256 256 256 293 293 30 30 30 30 338 338
 6 6 206 209 209 209 169 169 169 169 169 202 202 202 202 202 257 257 256 256
 256 293 293 293 293 30 30 30 345 345 345 345 209 209 209 209 209 169 169 169
 147 149 202 202 202 123 123 127 127 127 256 293 293 293 293 30 30 309 345 345
 345 345 209 209 209 209 209 209 147 147 147 48 48 202 123 123 123 123 127 127
 317 317 293 293 293 309 309 309 309 345 345 345 209 209 209 209 209 209 147 147
 48 48 48 123 123 123 123 123 225 317 317 317 317 317 309 309 309 309 309 89
 345 345 209 209 209 209 209 223 147 147 48 48 48 123 123 123 123 123 225 317
 317 317 317 317 309 309 309 309 309 89 89 89 209 209 209 209 223 223 223 48
 48 48 48 48 123 123 123 123 120 120 317 317 317 317 309 309 309 309 309 89
 89 89 236 380 380 380 223 223 223 48 48 48 48 48 123 123 123 120 120 120
 120 317 317 309 309 309 309 309 309 309 185 185 236 236 380 380 41 41 41 48
 226 226 226 226 123 123 120 120 120 120 120 45 45 45 374 309 309 56 309 185
 185 185 185 271 271 41 41 41 41 41 226 226 226 226 226 120 120 120 120 358
 45 45 45 45 374 374 56 56 56 185 185 185 185 271 271 271 41 41 41 41
 226 226 226 226 386 386 120 120 120 45 45 45 45 45 45 374 56 56 56 185
 185 185 185 271 271 11 11 41 41 41 180 180 226 226 386 386 386 13 45 45
 45 45 45 45 45 374 56 56 185 185 185 185 11 11 11 11 11 11 41 41
 180 180 180 71 386 386 386 13 13 45 45 45 45 45 45 243 243 243 185 185
 185 28 28 28 11 11 11 11 11 11 180 180 180 71 71 71 71 13 13 13
 45 45 45 243 243 243 243 243 243 96 28 28 28 28 11 11 11 11 17 17
 17 180 180 71 71 71 71 13 13 79 79 45 243 243 243 243 243 243 243 96
 311 311 28 28 28 11 11 11 17 17 17 17 17 71 71 71 71 13 79 79
 79 79 230 243 243 243 243 243 243 96 311 311 311 96 28 11 11 17 17 17
 17 17 17 71 71 29 29 29 79 79 79 230 230 243 243 243 243 243 243 96
 96 96 96 96 96 11 17 17 17 17 17 17 17 17 29 29 29 29 29 79
 79 230 230 230 243 243 243 267 267 96 96 96 96 96 96 328 328 17 17 17
 387 387 387 201 201 29 29 29 29 373 373 230 230 101 243 267 267 267 267 267
 96 96 175 175 175 253 253 253 17 17 387 387 387 201 201 201 29 29 29 29
 101 101 101 101 101 267 267 267 267 267 104 104 175 175 175 253 253 253 253 17
 387 387 387 201 201 201 207 207 162 162 162 101 101 101 101 267 267 267 267 267
 104 104 175 175 175 253 253 253 253 253 387 81 81 201 201 201 207 207 162 162
 162 101 101 101 101 101 267 267 267 104 104 104 339 175 339 339 253 298 298 298
 219 219 219 219 81 201 182 182 162 162 162 101 101 101 101 321 321 321 321 321
 344 344 344 339 197 197 197 197 298 219 219 219 219 219 219 182 182 182 182 182
 182 151 151 101 244 321 321 321 321 321 344 344 344 339 197 197 197 197 219 219
 219 219 219 359 359 50 182 182 182 182 151 151 151 151 244 321 321 321 321 321
 344 344 344 344 197 197 197 183 183 183 183 359 359 359 359 359 182 182 182 182
 151 151 151 151 151 18 321 321 321 338 338 6 6 266 266 197 183 183 183 183
 183 359 359 359 359 359 282 282 282 229 151 151 151 151 30 30 30 338 338 338
 338 6 6 6 266 183 183 183 183 183 183 359 359 359 359 359 282 282 282 229
 229 342 342 342 30 30 30 338 338 338 6 6 6 6 210 183 183 183 183 183
 169 359 359 359 359 359 282 282 282 229 229 229 342 30 30 30 30 338 338 338
 338 6 6 206 206 206 169 169 169 169 169 359 359 359 359 359 282 282 282 256
 256 256 340 340 340 340 30 30 338 338 338 6 206 206 206 206 169 169 169 169
 169 149 359 359 359 359 282 282 256 256 256 256 293 340 340 340 30 30 338 338
 338 206 206 206 206 206 169 169 169 169 149 149 149 202 202 202 127 127 127 127
 256 293 293 293 340 340 30 354 354 354 354 352 352 352 352 209 209 169 169 169
 149 149 149 149 202 127 127 127 127 127 127 305 305 305 305 305 30 354 354 345
 345 352 352 352 352 209 209 169 149 149 149 149 149 149 123 123 225 127 127 127
 127 305 305 305 305 305 309 309 89 345 345 352 352 352 209 209 209 209 149 149
 149 149 149 149 123 123 225 225 225 225 317 305 305 305 305 309 309 309 89 89
 89 352 352 352 209 209 209 167 149 149 149 48 48 123 123 123 225 225 225 225
 317 317 317 305 309 309 309 309 89 89 89 89 209 209 380 380 380 223 223 149
 48 48 48 48 123 123 123 225 225 225 281 281 281 281 309 309 309 309 89 89
 89 89 380 380 380 380 380 223 223 48 48 48 226 216 216 216 216 225 225 281
 281 281 281 281 374 374 309 309 309 185 185 185 185 380 380 380 380 41 41 41
 226 226 226 226 216 216 216 225 120 281 281 281 281 374 374 374 374 374 185 185
 185 185 185 271 271 271 41 41 41 41 226 226 226 226 226 216 216 120 120 45
 45 45 45 374 374 374 374 374 185 185 185 185 185 271 271 271 41 41 41 41
 226 226 226 226 386 386 386 120 120 45 45 45 45 45 374 374 374 374 185 185
 185 185 185 271 271 271 11 41 41 41 180 180 226 226 386 386 386 386 45 45
 45 45 45 45 374 374 374 374 185 185 185 185 185 28 11 11 11 11 41 41
 180 180 180 226 386 386 386 13 13 45 45 45 45 45 243 243 243 243 185 185
 185 28 28 28 11 11 11 11 11 11 180 180 180 71 71 71 71 13 13 79
 79 45 45 243 243 243 243 243 243 185 185 28 28 28 28 11 11 11 314 314
 180 180 180 71 71 71 71 79 79 79 79 79 243 243 243 243 243 243 243 243
 311 311 28 28 28 11 11 11 314 314 314 180 180 71 71 71 71 79 79 79
 79 79 243 243 243 243 243 243 243 96 311 311 311 28 28 11 328 328 314 314
 17 17 17 71 29 29 29 29 79 79 79 79 243 243 243 243 243 243 243 104
 311 311 311 96 328 328 328 328 328 17 17 387 387 387 363 29 29 29 29 79
 79 230 230 243 243 243 243 243 104 104 104 104 175 175 175 328 328 328 328 17
 387 387 387 387 363 29 29 29 29 79 101 101 101 101 243 243 243 267 104 104
 104 104 175 175 175 328 328 328 328 328 387 387 387 387 363 29 29 29 29 29
 101 101 101 101 101 101 267 267 104 104 104 104 175 175 175 175 328 328 328 387
 387 387 387 387 201 29 29 29 162 162 162 101 101 101 101 101 267 267 104 104
 104 104 175 175 175 175 253 253 328 387 219 219 219 219 201 201 29 29 162 162
 162 101 101 101 101 101 267 104 104 104 104 104 175 175 175 197 197 197 298 387
 219 219 219 219 161 161 182 182 162 162 162 101 101 101 101 101 321 321 321 104
 344 344 344 175 197 197 197 197 219 219 219 219 219 219 161 161 182 182 182 182
 182 101 101 101 101 321 321 321 321 321 344 344 344 344 197 197 197 197 219 219
 219 219 219 359 161 161 182 182 182 182 182 138 138 138 138 18 18 321 321 321
 344 344 344 344 197 197 197 183 183 183 183 359 359 359 359 359 182 182 182 182
 138 138 138 138 138 18 18 18 18 338 338 338 344 344 197 197 183 183 183 183
 183 359 359 359 359 359 282 282 282 229 138 138 138 138 18 18 18 18 338 338
 338 338 6 6 197 183 183 183 183 183 359 359 359 359 359 359 282 282 282 229
 229 138 138 138 30 18 18 338 338 338 338 6 6 6 6 183 183 183 183 183
 169 359 359 359 359 359 282 282 282 229 229 332 340 340 30 30 30 338 338 338
 338 206 206 206 206 206 169 169 169 169 169 359 359 359 359 359 282 282 282 229
 229 332 340 340 340 340 30 354 338 338 338 206 206 206 206 206 206 169 169 169
 169 149 149 359 359 359 127 127 127 256 256 332 340 340 340 340 30 354 354 354
 354 206 206 206 206 206 206 169 169 169 149 149 149 149 359 359 127 127 127 127
 127 305 305 305 340 340 354 354 354 354 354 206 352 352 352 352 352 169 169 149
 149 149 149 149 149 127 127 127 127 127 127 305 305 305 305 305 305 354 354 354
 354 352 352 352 352 352 352 169 149 149 149 149 149 149 149 225 127 127 127 127
 127 305 305 305 305 305 305 354 354 354 352 352 352 352 352 352 352 149 149 149
 149 149 149 149 149 225 225 225 225 225 225 305 305 305 305 305 309 309 89 89
 89 352 352 352 352 352 167 167 149 149 149 149 149 149 216 225 225 225 225 225
 281 281 281 305 305 305 309 309 89 89 89 352 352 352 380 380 380 167 167 149
 149 149 149 216 216 216 225 225 225 225 281 281 281 281 374 374 374 309 89 89
 89 89 352 380 380 380 380 167 167 149 149 226 226 216 216 216 216 225 225 281
 281 281 281 281 374 374 374 374 185 185 185 185 185 380 380 380 380 82 41 301
 301 226 226 226 216 216 216 225 225 281 281 281 281 374 374 374 374 374 185 185
 185 185 185 271 271 82 82 82 301 301 301 226 226 226 216 216 216 225 225 281
 281 281 281 374 374 374 374 374 185 185 185 185 185 271 271 271 82 82 301 301
 301 226 226 226 386 386 386 386 120 45 45 45 45 374 374 374 374 374 185 185
 185 185 185 271 271 271 11 11 301 301 301 226 226 226 386 386 386 386 45 45
 45 45 45 374 374 374 374 374 185 185 185 185 185 28 188 11 11 11 301 301
 180 180 180 180 386 386 386 386 384 45 45 45 45 243 243 243 243 243 52 52
 185 185 28 28 188 11 11 11 11 314 180 180 180 180 39 386 386 384 79 79
 79 45 243 243 243 243 243 243 52 52 52 28 28 28 28 11 11 11 314 314
 314 180 180 180 39 39 79 79 79 79 79 79 243 243 243 243 243 243 243 52
 52 311 28 28 28 11 11 314 314 314 314 314 180 180 29 29 79 79 79 79
 79 270 243 243 243 243 243 243 243 52 311 311 311 28 28 328 328 328 314 314
 314 314 314 363 29 29 29 29 79 79 270 270 243 243 243 243 243 243 243 104
 311 311 311 311 328 328 328 328 328 314 314 314 387 363 363 29 29 29 29 270
 270 270 243 243 243 243 243 243 104 104 104 104 104 175 328 328 328 328 328 328
 387 387 387 363 363 363 29 29 29 270 270 270 101 101 243 243 243 104 104 104
 104 104 175 175 175 328 328 328 328 328 387 387 387 363 363 363 29 29 29 270
 270 101 101 101 101 101 104 104 104 104 104 104 175 175 175 328 328 328 328 328
 387 387 387 387 363 363 29 29 162 162 101 101 101 101 101 101 104 104 104 104
 104 104 175 175 175 328 328 328 328 328 219 219 219 219 161 161 220 220 162 162
 162 101 101 101 101 101 104 104 104 104 104 104 104 175 175 197 197 197 328 328
 219 219 219 219 161 161 161 182 162 162 162 101 101 101 101 101 104 104 104 104
 104 344 344 344 197 197 197 197 219 219 219 219 219 219 161 161 161 182 182 182
 138 138 138 284 284 284 321 321 321 104 344 344 344 344 197 197 197 197 219 219
 219 219 219 359 161 161 182 182 182 182 138 138 138 138 284 18 18 18 18 18
 344 344 344 344 197 197 197 183 183 183 359 359 359 359 359 359 182 182 182 182
 138 138 138 138 138 18 18 18 18 338 338 338 344 344 197 197 197 183 183 183
 359 359 359 359 359 359 282 282 182 138 138 138 138 138 138 18 18 18 18 338
 338 338 338 206 206 206 183 183 183 183 359 359 359 359 359 359 282 282 282 229
 138 138 138 138 138 18 18 18 338 338 338 338 206 206 206 206 169 169 169 169
 169 359 359 359 359 359 282 282 282 229 332 332 332 340 340 340 118 118 118 338
 338 206 206 206 206 206 222 169 169 169 169 359 359 359 359 359 359 337 337 337
 332 332 332 340 340 340 354 354 354 354 206 206 206 206 206 206 222 169 169 169
 149 149 149 359 359 359 337 337 337 337 332 332 340 340 340 340 354 354 354 354
 354 206 206 206 206 206 206 169 169 169 149 149 149 149 149 149 127 127 127 127
 377 305 305 305 305 76 354 354 354 354 354 352 352 352 206 206 178 178 169 149
 149 149 149 149 149 149 127 127 127 127 377 305 305 305 305 305 354 354 354 354
 354 352 352 352 352 352 178 178 178 149 149 149 149 149 149 225 225 127 127 127
 377 377 305 305 305 305 305 354 354 354 352 352 352 352 352 352 178 178 178 149
 149 149 149 149 149 225 225 225 225 225 377 377 305 305 305 305 305 354 89 89
 352 352 352 352 352 352 167 167 167 149 149 149 149 149 216 225 225 225 225 225
 281 281 281 305 305 305 305 309 89 89 299 299 352 352 352 380 167 167 167 149
 149 149 149 216 216 216 225 225 225 225 281 281 281 281 374 374 374 374 89 89
 89 299 352 352 380 380 380 167 167 149 149 149 226 216 216 216 216 225 225 281
 281 281 281 281 374 374 374 374 185 185 185 185 185 82 82 380 82 82 82 301
 301 226 226 216 216 216 216 216 225 281 281 281 281 374 374 374 374 374 185 185
 185 185 185 82 82 82 82 82 301 301 301 226 226 226 216 216 216 216 225 281
 285 281 281 374 374 374 374 374 185 185 185 185 185 82 82 82 82 82 301 301
 301 226 226 226 386 386 386 386 285 285 285 285 374 374 374 374 374 374 185 185
 185 185 185 82 82 82 82 82 301 301 301 226 226 39 386 386 386 384 384 285
 285 45 374 374 374 374 374 374 52 185 185 185 185 188 188 82 82 82 301 301
 180 180 39 39 39 39 384 384 384 384 45 45 45 374 374 374 243 52 52 52
 52 52 28 188 188 188 11 11 314 314 314 180 39 39 39 39 384 384 384 384
 270 270 243 243 243 243 243 52 52 52 52 52 28 28 188 11 11 11 314 314
 314 314 39 39 39 39 384 384 270 270 270 270 265 243 243 243 243 243 52 52
 52 52 28 28 388 388 388 314 314 314 314 314 39 39 39 363 363 270 270 270
 270 270 265 243 243 243 243 243 243 52 52 52 311 388 388 388 328 328 314 314
 314 314 314 363 363 363 363 270 270 270 270 270 265 265 243 243 243 243 243 104
 104 104 104 388 388 328 328 328 328 314 314 314 363 363 363 363 363 29 270 270
 270 270 270 243 243 243 243 243 104 104 104 104 104 104 328 328 328 328 328 328
 387 387 387 363 363 363 363 29 270 270 270 270 270 101 243 243 243 104 104 104
 104 104 104 175 328 328 328 328 328 328 387 387 387 363 363 363 363 29 270 270
 270 270 101 101 101 101 104 104 104 104 104 104 104 175 175 328 328 328 328 328
 387 387 387 363 363 220 220 220 220 270 270 101 101 101 101 101 104 104 104 104
 104 104 104 175 175 328 328 328 328 328 59 219 219 161 161 161 220 220 220 220
 101 101 101 101 101 101 104 104 104 104 104 104 104 104 175 197 328 328 328 59
 59 219 219 161 161 161 161 220 220 220 221 221 101 284 101 101 104 104 104 104
 104 104 104 104 197 197 197 385 385 59 219 219 219 161 161 161 161 161 182 221
 221 221 284 284 284 284 235 235 235 104 344 344 344 344 197 197 197 385 385 219
 219 59 59 161 161 161 161 182 182 138 138 138 138 284 284 18 235 235 18 106
 344 344 344 344 197 197 197 385 218 218 219 359 359 359 359 161 182 182 182 138
 138 138 138 138 284 18 18 18 18 106 106 338 344 206 197 197 197 222 218 218
 359 359 359 359 359 359 182 182 182 138 138 138 138 138 138 18 18 18 18 106
 106 338 206 206 206 206 222 222 183 183 359 359 359 359 359 359 359 282 282 138
 138 138 138 138 18 18 18 18 118 338 338 206 206 206 206 206 222 222 169 169
 139 139 139 359 359 337 337 337 337 337 332 332 332 332 340 118 118 118 118 118
 206 206 206 206 206 206 222 222 222 222 139 139 139 359 359 337 337 337 337 337
 332 332 332 332 340 76 118 118 118 354 206 206 206 206 206 206 222 222 222 169
 149 149 149 149 337 337 337 337 337 337 332 332 332 332 76 76 76 354 354 354
 354 206 206 206 206 206 222 169 169 169 149 149 149 149 149 337 337 337 337 377
 377 377 305 305 76 76 76 354 354 354 354 352 352 352 352 206 178 178 178 149
 149 149 149 149 149 149 233 233 233 377 377 377 305 305 305 76 76 354 354 354
 354 352 352 352 352 352 178 178 178 149 149 149 149 149 149 225 233 233 233 377
 377 377 305 305 305 305 76 354 354 354 354 352 352 352 352 352 178 178 178 149
 149 149 149 149 149 225 225 225 225 225 377 377 377 305 305 305 67 354 354 354
 299 299 352 352 352 352 178 178 178 149 149 149 149 149 216 225 225 225 225 225
 281 281 281 305 305 67 67 67 67 299 299 299 299 352 352 352 167 167 167 149
 149 149 149 216 216 216 225 225 225 225 281 281 281 281 374 374 374 374 89 299
 299 299 299 352 82 82 82 167 167 149 149 149 149 216 216 216 216 225 225 281
 281 281 281 281 374 374 374 374 185 185 185 185 185 82 82 82 82 82 82 82
 301 301 226 216 216 216 216 216 225 285 285 281 281 374 374 374 374 374 185 185
 185 185 185 82 82 82 82 82 82 301 301 226 226 216 216 216 216 216 285 285
 285 285 281 374 374 374 374 374 185 185 185 185 185 82 82 82 82 82 301 301
 301 226 226 98 98 98 98 384 285 285 285 285 374 374 374 374 374 374 185 185
 185 185 185 82 82 82 82 82 301 301 301 39 39 39 98 98 384 384 384 285