# vtk DataFile Version 2.0
Data set from IO Version 6.4.197.9a0dee2
ASCII

DATASET RECTILINEAR_GRID
DIMENSIONS 31 31 31
X_COORDINATES 31 float
-1.933334 1.933334 5.800001 9.666668 13.533335 17.400002 21.266668 25.133335 29.000002 32.866669 36.733337 40.600002 44.466671 48.333336 52.200005 56.066669 59.933338 63.800003 67.666672 71.533340 75.400009 
79.266670 83.133339 87.000008 90.866676 94.733345 98.600006 102.466675 106.333344 110.200012 114.066673 
Y_COORDINATES 31 float
-1.933334 1.933334 5.800001 9.666668 13.533335 17.400002 21.266668 25.133335 29.000002 32.866669 36.733337 40.600002 44.466671 48.333336 52.200005 56.066669 59.933338 63.800003 67.666672 71.533340 75.400009 
79.266670 83.133339 87.000008 90.866676 94.733345 98.600006 102.466675 106.333344 110.200012 114.066673 
Z_COORDINATES 31 float
-1.933334 1.933334 5.800001 9.666668 13.533335 17.400002 21.266668 25.133335 29.000002 32.866669 36.733337 40.600002 44.466671 48.333336 52.200005 56.066669 59.933338 63.800003 67.666672 71.533340 75.400009 
79.266670 83.133339 87.000008 90.866676 94.733345 98.600006 102.466675 106.333344 110.200012 114.066673 
CELL_DATA 27000
SCALARS FeatureIds int 1
LOOKUP_TABLE default
 24 24 252 105 105 105 105 105 41 41 40 40 40 323 323 323 165 165 165 193
 193 146 146 146 146 146 146 296 296 296 24 24 24 105 105 105 105 105 41 41
 40 40 325 325 325 325 165 165 165 193 193 146 146 146 146 146 146 296 296 198
 24 24 105 105 105 105 105 105 105 41 40 40 325 325 249 249 249 249 165 193
 146 146 146 146 146 146 146 296 293 293 293 24 105 105 105 105 105 105 105 41
 40 325 325 325 249 249 249 249 188 188 188 188 143 143 143 143 143 293 293 293
 293 293 105 105 105 105 105 105 105 105 201 201 201 325 249 249 249 249 188 188
 188 188 188 143 143 143 293 293 293 293 293 293 293 105 105 105 105 105 389 389
 201 201 201 167 167 167 167 167 167 188 188 188 188 188 143 293 293 293 293 293
 293 293 293 312 312 389 389 389 389 389 201 201 201 167 167 167 167 167 167 188
 188 188 188 188 200 200 293 293 293 293 293 293 293 312 312 312 389 389 389 389
 201 201 167 167 167 167 167 167 167 231 188 188 188 188 200 200 200 293 293 293
 293 293 312 312 312 312 312 389 374 374 374 374 167 167 167 167 167 167 368 368
 231 231 231 231 200 200 43 43 293 293 293 293 312 312 312 312 312 374 374 374
 374 374 374 180 180 167 167 167 368 368 231 231 231 332 332 332 43 43 43 293
 373 373 312 312 312 312 312 374 374 374 374 374 374 180 180 180 381 381 368 368
 231 231 231 332 332 332 332 43 43 373 373 373 373 312 312 114 114 114 374 374
 374 374 374 180 180 180 381 381 381 368 231 231 169 332 332 332 332 373 373 373
 373 373 373 114 114 114 114 114 374 374 374 374 347 347 347 347 381 381 381 368
 251 169 169 169 256 256 256 373 373 373 373 373 373 114 114 114 114 114 114 374
 374 347 347 347 347 347 381 381 381 251 251 169 169 169 256 256 256 373 373 373
 373 373 373 114 114 114 114 72 274 274 274 347 347 347 347 347 347 381 251 251
 251 169 169 169 256 256 256 373 373 373 373 373 373 138 138 114 114 72 274 274
 274 365 347 347 347 347 347 99 251 251 251 364 169 169 256 256 256 373 373 373
 373 373 373 138 138 138 114 72 274 274 274 365 365 365 347 347 99 99 99 251
 364 364 364 364 127 127 127 373 373 373 348 348 348 138 138 138 235 235 235 274
 274 365 365 365 365 55 99 99 99 99 364 364 364 364 127 127 127 373 373 373
 348 348 348 348 138 27 235 235 235 235 76 76 76 55 55 55 99 99 99 99
 16 16 16 16 127 127 127 220 220 348 348 348 348 348 27 27 235 235 235 235
 76 76 55 55 55 55 99 99 99 99 16 16 16 16 127 127 220 220 220 348
 348 348 348 348 348 6 235 235 235 235 76 76 76 55 55 99 99 99 99 99
 372 372 372 372 372 220 220 220 220 348 348 348 348 336 336 6 6 235 235 226
 226 226 7 7 7 99 99 99 99 99 372 372 372 372 372 68 220 144 144 144
 144 336 336 336 336 336 178 178 178 226 226 226 7 7 7 7 64 64 64 372
 372 372 372 372 372 68 144 144 144 144 144 336 336 336 336 336 178 178 178 226
 226 226 7 7 7 7 64 64 64 64 372 372 372 372 372 144 144 144 144 144
 144 336 336 336 336 336 178 178 178 178 226 226 7 7 7 7 64 64 64 64
 372 278 278 278 278 278 144 144 144 144 144 336 336 336 336 286 178 178 178 178
 344 344 344 7 7 7 64 64 64 241 278 278 278 278 278 278 144 144 144 144
 211 211 211 286 286 286 286 178 178 178 344 344 344 7 7 318 318 64 241 309
 309 309 309 278 278 278 296 144 144 144 211 211 211 286 286 286 286 286 56 56
 56 56 56 323 318 318 165 165 309 309 309 309 309 309 278 296 296 296 296 296
 211 211 252 286 286 286 286 286 56 56 56 56 323 323 323 165 165 165 165 193
 309 309 309 309 146 296 296 296 296 296 252 252 252 286 286 286 286 286 56 56
 56 40 323 323 323 165 165 165 165 193 193 146 146 146 146 146 296 296 296 296
 24 24 24 24 105 105 105 105 40 40 40 40 40 323 323 224 165 165 165 172
 172 146 146 146 146 146 146 296 198 198 24 24 24 105 105 105 105 105 41 40
 40 40 40 40 224 224 224 165 165 172 172 146 146 146 146 146 146 296 198 198
 24 24 24 105 105 105 105 105 105 40 40 40 40 40 249 249 249 249 172 172
 172 172 146 146 146 146 146 198 198 198 24 24 105 105 105 105 105 105 389 389
 40 40 40 40 249 249 249 249 188 188 188 188 188 146 146 146 146 293 293 293
 293 293 105 105 105 105 389 389 389 389 201 201 201 201 249 249 249 249 188 188
 188 188 188 188 143 146 293 293 293 293 293 293 293 105 105 389 389 389 389 389
 201 201 201 201 167 167 167 167 167 188 188 188 188 188 188 293 293 293 293 293
 293 293 312 312 312 389 389 389 389 389 201 201 201 167 167 167 167 167 167 188
 188 188 188 188 200 200 200 293 293 293 293 293 312 312 312 312 389 389 389 389
 201 201 167 167 167 167 167 167 167 188 188 188 188 188 200 200 200 293 293 293
 293 312 312 312 312 312 312 389 389 374 374 374 167 167 167 167 167 167 368 368
 368 231 231 332 332 200 200 43 293 293 293 312 312 312 312 312 312 312 374 374
 374 374 374 167 167 167 167 167 368 368 368 231 231 332 332 332 332 43 43 293
 373 312 312 312 312 312 312 312 374 374 374 374 374 167 167 167 167 381 368 368
 368 231 332 332 332 332 332 332 373 373 373 373 312 312 312 114 114 114 374 374
 374 374 374 157 157 167 381 106 106 106 368 231 169 332 332 332 332 373 373 373
 373 373 373 114 114 114 114 114 114 374 374 374 347 347 347 347 381 106 106 106
 251 169 169 169 169 256 373 373 373 373 373 373 373 114 114 114 114 114 114 374
 374 347 347 347 347 347 381 106 106 251 251 251 169 169 169 256 373 373 373 373
 373 373 373 114 114 114 114 114 274 274 274 347 347 347 347 347 347 106 251 251
 251 251 169 169 169 256 373 373 373 373 373 373 373 114 114 114 114 114 274 274
 274 365 347 347 347 347 341 341 341 251 251 251 251 311 256 256 373 373 373 373
 373 373 373 138 138 138 114 72 274 274 274 76 76 365 347 347 341 341 341 251
 251 251 311 311 127 127 127 373 373 373 348 348 348 138 138 138 235 235 235 76
 76 76 76 76 55 55 341 341 341 341 251 311 311 311 127 127 127 373 373 183
 348 348 348 348 27 27 235 235 235 76 76 76 76 76 55 55 99 99 99 99
 16 16 16 311 127 127 127 220 183 183 348 348 348 348 27 27 235 235 235 76
 76 76 76 76 55 55 99 99 99 99 16 16 16 311 127 68 220 220 183 183
 348 348 348 348 27 27 235 235 235 76 76 76 76 76 55 305 305 99 99 99
 16 16 16 372 68 68 68 220 183 183 348 348 336 336 336 336 235 235 235 76
 76 76 7 7 7 305 305 305 305 99 372 372 372 372 68 68 68 68 144 144
 144 336 336 336 336 336 235 178 178 226 226 226 7 7 7 7 64 64 64 305
 372 372 372 372 68 68 68 144 144 144 144 336 336 336 336 336 178 178 178 226
 226 226 7 7 7 7 64 64 64 64 372 372 372 372 68 68 144 144 144 144
 144 336 336 336 336 336 178 178 178 178 226 226 7 7 7 7 64 64 64 64
 372 372 278 278 278 314 314 144 144 144 144 336 336 336 336 286 178 178 178 56
 56 344 7 7 7 318 64 64 64 241 241 278 278 278 278 278 314 314 144 144
 211 211 211 286 286 286 286 56 56 56 56 56 56 318 318 318 318 318 241 241
 309 309 309 278 278 314 314 314 144 144 211 211 211 286 286 286 286 56 56 56
 56 56 56 318 318 318 318 318 241 241 309 309 309 309 309 296 296 296 296 296
 211 211 252 286 286 286 286 56 56 56 56 56 323 323 323 318 165 165 165 241
 309 309 309 309 146 296 296 296 296 296 252 252 252 286 286 286 286 56 56 56
 56 40 323 323 323 165 165 165 165 241 193 146 146 146 146 146 296 296 296 296
 24 24 24 107 107 243 105 56 56 56 40 40 40 323 224 224 165 165 165 172
 172 172 146 146 146 146 146 198 198 198 24 24 24 105 105 105 105 389 56 40
 40 40 40 40 224 224 224 165 172 172 172 172 146 146 146 146 146 198 198 198
 24 24 24 105 105 105 105 389 389 40 40 40 40 40 224 224 249 249 172 172
 172 172 172 146 146 146 146 198 198 198 24 24 105 105 105 389 389 389 389 389
 40 40 40 249 249 249 249 249 119 119 172 172 172 146 146 146 19 198 198 198
 293 293 105 105 389 389 389 389 389 389 201 201 201 201 249 249 249 249 119 119
 188 188 188 188 19 19 19 293 293 293 293 293 312 312 389 389 389 389 389 389
 201 201 201 167 167 167 167 167 119 119 188 188 188 188 19 19 19 293 293 293
 293 293 312 312 312 389 389 389 389 389 201 201 201 167 167 167 167 167 119 119
 188 188 188 188 19 200 200 293 293 293 293 312 312 312 312 312 389 389 389 389
 201 201 167 167 167 167 167 167 167 188 188 188 188 188 200 200 200 293 293 293
 293 312 312 312 312 312 312 389 389 389 174 201 167 167 167 167 167 167 368 368
 368 188 188 332 332 200 200 43 293 293 312 312 312 312 312 312 312 312 389 374
 374 374 167 167 167 167 167 167 368 368 368 368 332 332 332 332 332 332 82 82
 373 312 312 312 312 312 312 230 230 374 374 374 157 157 157 167 167 106 106 106
 368 368 332 332 332 332 332 332 373 373 373 373 312 312 312 312 230 230 230 230
 374 374 157 157 157 157 106 106 106 106 106 106 169 332 332 332 332 373 373 373
 373 373 373 312 114 114 114 230 230 230 374 157 157 157 157 157 106 106 106 106
 251 251 169 169 169 256 373 373 373 373 373 373 373 114 114 114 114 114 230 230
 316 316 347 157 347 347 106 106 106 251 251 251 169 169 169 256 373 373 373 373
 373 373 373 114 114 114 114 114 114 274 274 347 347 347 347 347 341 106 251 251
 251 251 169 169 169 256 373 373 373 373 373 373 373 114 114 114 114 114 274 274
 76 76 347 347 347 341 341 341 341 251 251 251 251 311 311 311 373 373 373 373
 373 373 373 138 138 114 114 258 258 76 76 76 76 76 347 341 341 341 341 251
 251 251 311 311 311 127 127 373 373 373 373 373 348 138 138 138 235 258 258 76
 76 76 76 76 76 341 341 341 341 341 251 311 311 311 311 127 127 373 183 183
 183 348 348 348 27 27 235 235 235 76 76 76 76 76 76 305 305 341 341 341
 16 16 311 311 311 127 127 127 183 183 183 348 348 27 27 27 235 235 235 76
 76 76 76 76 76 305 305 305 305 305 16 16 16 311 311 68 68 183 183 183
 183 348 348 336 27 27 235 235 235 76 76 76 76 76 76 305 305 305 305 305
 16 16 16 68 68 68 68 68 183 183 183 336 336 336 336 336 235 235 235 76
 76 76 76 7 7 305 305 305 305 305 372 372 372 68 68 68 68 68 183 183
 156 156 336 336 336 336 336 235 115 226 340 340 7 7 7 305 305 305 305 305
 122 122 122 68 68 68 68 68 144 144 156 156 336 336 336 336 336 115 115 115
 340 340 7 7 7 7 64 64 64 305 122 122 122 122 68 68 314 314 144 144
 156 156 336 336 336 336 115 115 115 115 340 340 7 7 7 7 64 64 64 64
 122 122 122 278 278 314 314 314 314 144 156 156 336 336 336 336 56 115 115 56
 56 56 7 7 318 318 318 64 241 241 241 354 354 278 278 314 314 314 314 144
 211 211 336 336 286 286 56 56 56 56 56 56 56 318 318 318 318 318 241 241
 241 309 309 309 278 314 314 314 314 314 211 211 107 286 286 286 56 56 56 56
 56 56 56 318 318 318 318 318 241 241 241 309 309 309 309 314 314 314 314 314
 107 107 107 107 286 286 56 56 56 56 56 56 56 323 318 318 318 165 241 241
 241 309 309 309 147 296 296 296 296 296 107 107 107 107 107 286 56 56 56 56
 56 56 323 323 323 318 165 165 165 241 172 172 172 146 146 155 155 296 296 296
 24 107 107 107 107 243 243 56 56 56 56 40 40 323 224 224 318 165 172 172
 172 172 172 172 155 155 155 198 198 198 198 24 107 107 107 243 389 56 56 40
 40 40 40 40 224 224 224 172 172 172 172 172 172 146 155 155 155 198 198 198
 198 24 24 105 105 389 389 389 389 40 40 40 40 224 224 224 249 249 172 172
 172 172 172 172 146 155 155 155 198 198 198 24 105 389 389 389 389 389 389 389
 40 208 208 249 249 249 249 119 119 119 172 172 172 172 146 155 155 155 198 198
 290 290 290 389 389 389 389 389 389 389 389 208 208 208 238 238 238 119 119 119
 119 188 188 188 19 19 19 19 198 198 290 290 312 312 389 389 389 389 389 389
 389 201 201 167 167 167 167 119 119 119 119 188 188 19 19 19 19 19 293 293
 293 312 312 312 312 389 389 389 389 389 389 201 201 167 167 167 167 167 119 119
 119 188 188 188 19 19 19 19 293 293 312 312 312 312 312 312 389 389 389 389
 389 174 167 167 167 167 167 167 119 119 119 188 188 66 19 19 19 82 82 82
 82 312 312 312 312 312 312 389 389 389 174 174 174 167 167 167 167 167 39 39
 39 188 188 66 332 200 200 82 82 82 82 312 312 312 312 312 312 312 389 174
 174 174 174 157 167 167 167 167 39 39 39 39 352 332 332 332 332 82 82 82
 82 312 312 312 312 312 230 230 230 230 174 174 157 157 157 167 167 106 106 106
 106 352 352 352 352 332 332 82 82 82 373 373 312 312 312 312 230 230 230 230
 174 174 157 157 157 157 106 106 106 106 106 352 352 352 352 332 332 373 373 373
 373 373 177 177 177 114 230 230 230 230 316 316 157 157 157 157 106 106 106 106
 106 352 352 352 352 352 373 373 373 373 373 373 373 177 114 114 114 114 230 230
 316 316 157 157 157 157 106 106 106 251 251 251 169 169 169 373 373 373 373 373
 373 373 373 114 114 114 114 114 141 141 316 316 316 157 157 277 277 277 251 251
 251 251 251 169 169 373 373 373 373 373 373 373 373 239 114 114 114 258 258 258
 76 76 76 76 277 277 277 341 251 251 251 251 251 311 311 311 373 373 373 373
 373 373 239 239 239 114 258 258 258 258 76 76 76 76 76 341 341 341 341 251
 251 251 311 311 311 311 162 162 373 373 183 183 239 239 239 258 258 258 258 258
 76 76 76 76 76 341 341 341 341 341 251 311 311 311 311 311 127 162 183 183
 183 183 149 149 149 258 258 258 258 76 76 76 76 76 76 305 305 341 341 341
 16 311 311 311 311 311 127 183 183 183 183 183 149 149 83 83 258 258 258 76
 76 76 76 76 76 305 305 305 305 305 16 16 311 311 68 68 68 68 183 183
 183 183 149 83 83 83 235 235 76 76 76 76 76 76 76 305 305 305 305 305
 305 16 16 68 68 68 68 68 183 183 183 156 336 83 83 83 83 235 76 76
 76 76 76 76 305 305 305 305 305 305 305 122 122 68 68 68 68 68 183 183
 156 156 156 336 336 336 336 115 115 76 340 340 340 7 7 305 305 305 305 305
 122 122 122 68 68 68 68 68 264 264 156 156 156 336 336 336 115 115 115 115
 340 340 340 7 7 305 305 305 305 305 122 122 122 68 68 68 314 314 314 264
 156 156 156 336 336 336 115 115 115 115 340 340 340 7 7 318 305 305 305 305
 122 122 122 122 68 314 314 314 314 314 156 156 336 336 336 115 115 115 115 115
 56 56 56 318 318 318 318 318 241 241 354 354 354 354 314 314 314 314 314 314
 156 107 107 107 107 286 56 56 56 56 56 56 56 318 318 318 318 318 241 241
 241 354 354 354 314 314 314 314 314 314 107 107 107 107 107 107 56 56 56 56
 56 56 56 318 318 318 318 318 241 241 241 241 309 309 147 314 314 314 314 314
 107 107 107 107 107 107 56 56 56 56 56 56 56 318 318 318 318 318 241 241
 241 241 147 147 147 147 314 314 314 314 107 107 107 107 107 243 56 56 56 56
 56 56 56 318 318 318 318 318 241 241 172 172 172 147 155 155 155 155 314 314
 107 107 107 107 107 243 243 56 56 56 56 56 40 237 237 237 237 237 172 172
 172 172 172 155 155 155 155 155 198 198 198 107 107 107 107 243 243 56 56 56
 40 208 40 237 237 237 237 237 172 172 172 172 172 155 155 155 155 155 198 198
 242 242 107 107 107 389 389 389 389 152 208 208 208 208 237 237 237 210 210 210
 172 172 172 172 155 155 155 155 198 198 242 242 242 389 389 389 389 389 389 152
 208 208 208 208 237 237 237 210 210 210 210 172 172 172 155 155 155 155 198 198
 290 290 290 389 389 389 389 389 389 389 208 208 208 208 238 238 238 210 210 210
 210 210 188 172 19 19 19 155 290 290 290 290 290 312 389 389 389 389 389 389
 389 208 208 238 238 238 238 119 119 119 119 188 188 19 19 19 19 19 290 290
 290 290 312 312 312 389 389 389 389 389 389 389 174 167 167 238 238 167 119 119
 119 188 188 19 19 19 19 19 290 290 290 290 312 312 312 312 389 389 389 389
 174 174 174 167 167 167 167 167 119 119 119 188 66 66 66 66 66 82 82 82
 82 82 312 312 312 312 312 389 389 174 174 174 174 174 167 167 167 39 39 39
 39 39 66 66 66 66 82 82 82 82 82 82 312 312 312 312 312 312 389 174
 174 174 174 174 167 167 167 39 39 39 39 39 352 66 66 66 82 82 82 82
 82 82 177 177 312 312 312 230 230 174 174 174 174 157 157 157 106 106 106 106
 39 352 352 352 352 66 82 82 82 82 82 177 177 177 177 312 230 230 230 230
 174 174 157 157 157 157 106 106 106 106 106 352 352 352 352 352 82 82 82 82
 373 177 177 177 177 177 230 230 230 230 316 316 316 157 157 157 106 106 106 106
 106 352 352 352 352 352 373 373 373 373 373 177 177 177 177 177 141 141 141 316
 316 316 316 157 157 157 277 277 106 106 251 17 352 352 352 352 373 373 373 373
 373 239 239 239 239 141 141 141 141 141 316 316 316 316 299 277 277 277 277 251
 251 104 104 104 352 352 162 373 373 373 373 239 239 239 239 141 141 141 258 258
 258 316 316 316 277 277 277 277 277 251 251 104 104 311 311 311 162 162 162 162
 239 239 239 239 239 141 141 258 258 258 258 76 76 76 69 277 277 277 277 251
 104 104 311 311 311 311 162 162 162 162 183 239 239 239 239 239 258 258 258 258
 76 76 76 76 69 69 341 341 341 341 104 311 311 311 311 311 162 162 162 162
 183 183 149 149 149 258 258 258 258 258 76 76 76 76 69 69 305 305 341 341
 311 311 311 311 311 311 162 162 183 183 183 149 149 149 83 83 258 258 258 76
 76 76 76 76 76 305 305 305 305 305 305 311 311 311 68 68 68 162 183 183
 183 183 149 83 83 83 83 258 76 76 76 76 76 76 76 305 305 305 305 305
 305 311 311 68 68 68 68 68 183 183 264 156 83 83 83 83 83 83 76 76
 76 76 76 76 76 305 305 305 305 305 305 122 68 68 68 68 68 68 264 264
 264 156 156 83 83 83 83 115 115 76 340 340 340 7 7 305 305 305 305 305
 122 122 122 68 68 68 68 68 264 264 264 156 156 336 336 336 115 115 115 115
 340 340 340 7 7 305 305 305 305 305 122 122 122 68 68 68 314 314 264 264
 264 156 156 336 336 115 115 115 115 115 115 340 340 7 7 305 305 305 305 305
 122 122 122 122 123 123 314 314 314 264 264 156 156 107 107 115 115 115 115 115
 56 56 56 318 318 318 318 318 241 241 241 354 354 354 123 123 314 314 314 314
 190 107 107 107 107 107 56 56 56 56 56 56 56 318 318 318 318 318 241 241
 241 354 354 147 123 123 314 314 314 314 107 107 107 107 107 107 56 56 56 56
 56 56 56 318 318 318 318 318 241 241 241 241 147 147 147 147 314 314 314 314
 107 107 107 107 107 243 243 56 56 56 56 56 56 318 318 318 318 318 241 241
 241 241 147 147 147 147 314 314 314 314 107 107 107 107 107 243 243 56 56 56
 56 56 56 318 318 318 318 318 241 241 172 172 147 147 147 155 155 155 155 67
 107 107 107 107 243 243 243 56 56 56 56 56 217 217 237 237 237 237 172 172
 172 172 147 147 155 155 155 155 198 198 242 242 107 107 243 243 243 243 56 56
 208 208 208 217 237 237 237 237 210 210 172 172 172 155 155 155 155 155 198 198
 242 242 242 107 243 243 389 389 152 152 208 208 208 217 237 237 237 210 210 210
 210 172 172 155 155 155 155 155 155 242 242 242 242 128 128 389 389 389 152 152
 208 208 208 208 237 237 237 210 210 210 210 210 172 155 155 155 155 155 155 242
 290 290 128 128 128 389 389 389 389 152 208 208 208 238 238 238 238 210 210 210
 210 210 210 254 254 254 254 254 290 290 290 290 290 128 128 389 389 389 389 389
 389 208 208 238 238 238 238 238 210 210 210 210 254 254 254 254 254 254 290 290
 290 290 290 128 312 389 389 389 389 389 389 4 4 238 238 238 238 238 119 119
 119 188 66 254 254 254 254 254 290 290 290 290 312 312 312 312 389 389 389 389
 174 174 174 174 167 167 167 39 39 39 39 39 66 66 66 66 66 290 290 290
 82 82 312 312 312 312 312 389 389 174 174 174 174 174 167 167 167 39 39 39
 39 39 66 66 66 66 66 82 82 82 82 82 177 177 312 312 312 312 174 174
 174 174 174 174 174 167 39 39 39 39 39 39 66 66 66 66 66 82 82 82
 82 82 177 177 177 177 312 230 174 174 174 174 174 174 157 283 39 39 39 39
 39 352 352 352 352 66 66 82 82 82 82 177 177 177 177 177 230 230 230 174
 174 174 174 157 157 283 283 106 106 106 106 352 352 352 352 352 66 82 82 82
 82 177 177 177 177 177 141 141 230 316 316 316 316 157 157 283 106 106 106 106
 106 17 352 352 352 352 352 82 82 82 373 177 177 177 177 141 141 141 141 141
 316 316 316 316 299 299 277 277 106 106 17 17 17 352 352 352 162 373 373 373
 239 239 239 239 239 141 141 141 141 141 316 316 316 299 299 299 277 277 277 104
 104 104 104 104 352 162 162 162 162 162 239 239 239 239 239 141 141 141 141 141
 316 316 316 299 299 299 277 277 277 104 104 104 104 104 311 162 162 162 162 162
 239 239 239 239 239 141 141 141 258 258 258 76 69 69 69 69 277 277 277 277
 104 104 104 311 311 162 162 162 162 162 239 239 239 239 239 239 141 258 258 258
 258 76 76 69 69 69 69 277 277 277 104 104 311 311 311 162 162 162 162 162
 183 149 149 149 149 149 258 258 258 258 76 76 76 69 69 69 69 305 341 341
 104 311 311 311 311 162 162 162 162 183 183 149 149 149 149 83 258 258 258 258
 76 76 76 76 69 69 305 305 305 305 262 262 311 311 68 68 162 162 183 183
 183 149 149 83 83 83 83 258 76 76 76 76 76 76 76 305 305 305 305 305
 305 262 262 68 68 68 68 12 183 183 264 149 149 83 83 83 83 83 76 76
 76 76 76 76 305 305 305 305 305 305 305 262 262 68 68 68 68 68 264 264
 264 264 156 83 83 83 83 115 115 115 340 340 340 246 305 305 305 305 305 305
 122 122 46 46 46 68 68 264 264 264 264 264 156 351 351 351 351 115 115 115
 340 340 340 246 246 305 305 305 305 350 122 122 46 46 46 68 264 264 264 264
 264 264 156 351 351 351 351 115 115 115 115 340 340 246 246 305 305 305 305 350
 350 122 46 46 123 123 123 314 264 264 264 264 107 107 107 351 115 115 115 115
 56 56 56 140 140 140 318 219 241 241 241 354 354 46 123 123 123 314 314 264
 190 190 107 107 107 107 56 56 56 56 56 56 56 140 140 140 318 318 241 241
 241 354 147 147 123 123 123 314 314 264 190 190 107 107 107 107 56 56 56 56
 56 56 56 140 140 140 318 318 241 241 241 147 147 147 147 147 314 314 314 67
 107 107 107 107 107 243 243 56 56 56 56 56 56 140 140 318 318 318 241 241
 241 147 147 147 147 147 147 155 67 67 107 107 107 107 107 243 243 56 56 56
 56 56 56 318 318 318 318 318 241 241 355 147 147 147 147 155 155 155 155 67
 242 107 107 107 243 243 243 243 56 56 56 217 217 217 217 237 237 237 355 355
 355 355 147 147 155 155 155 155 67 67 242 242 107 107 243 243 243 234 205 205
 205 208 217 217 217 237 237 237 210 210 355 355 147 155 155 155 155 155 155 242
 242 242 242 242 234 234 234 234 205 205 205 208 217 217 217 237 237 210 210 210
 210 210 172 155 155 155 155 155 242 242 242 242 128 128 128 234 234 205 205 205
 205 208 208 217 217 237 237 210 210 210 210 210 210 254 155 155 155 155 242 242
 290 290 128 128 128 128 234 389 205 205 205 208 208 208 238 238 238 210 210 210
 210 210 254 254 254 254 254 254 290 290 290 290 128 128 128 128 389 389 389 205
 205 208 4 238 238 238 238 238 353 353 353 353 254 254 254 254 254 254 290 290
 290 290 128 128 128 128 389 389 389 389 4 4 4 4 238 238 238 353 353 353
 353 353 254 254 254 254 254 254 290 290 290 290 290 128 312 312 389 389 389 4
 4 4 4 4 238 238 238 353 353 353 353 353 66 66 66 66 254 290 290 290
 82 290 290 312 312 312 312 389 174 174 174 174 174 174 174 283 353 353 353 353
 353 353 66 66 66 66 66 82 82 82 82 82 177 177 177 312 312 361 174 174
 174 174 174 174 174 283 39 39 39 39 39 39 66 66 66 66 66 82 82 82
 82 82 177 177 177 177 312 361 174 174 174 174 174 174 283 283 283 39 39 39
 39 352 352 352 66 66 66 82 82 82 82 177 177 177 177 177 177 141 174 174
 174 174 174 174 283 283 283 283 39 39 39 352 352 352 352 352 66 82 82 82
 82 177 177 177 177 177 141 141 141 316 316 316 316 316 283 283 283 106 173 173
 173 352 352 352 352 352 327 327 82 82 239 239 239 177 177 141 141 141 141 141
 316 316 316 299 299 299 277 277 173 173 173 17 352 352 352 352 162 327 82 82
 239 239 239 239 239 141 141 141 141 141 316 316 316 299 299 299 277 277 277 173
 104 104 104 104 352 162 162 162 162 162 239 239 239 239 239 141 141 141 141 141
 141 316 316 299 299 299 277 277 277 104 104 104 104 104 104 162 162 162 162 162
 239 239 239 239 239 141 141 141 141 141 258 258 69 69 69 299 277 277 277 277
 104 104 104 104 311 162 162 162 162 162 239 239 239 239 239 239 141 141 258 258
 258 76 69 69 69 69 69 277 277 262 104 104 104 104 311 162 162 162 162 162
 59 149 149 149 149 149 258 258 258 258 258 76 69 69 69 69 69 277 262 262
 262 262 262 262 262 162 162 12 12 12 59 59 149 149 149 149 149 258 258 258
 76 76 76 69 69 69 69 305 262 262 262 262 262 262 262 12 12 12 12 12
 59 149 149 149 149 83 83 258 258 76 76 76 76 76 69 69 305 305 305 262
 262 262 262 262 46 12 12 12 12 12 264 149 149 149 83 83 83 83 94 94
 76 76 76 246 69 305 305 305 305 262 262 262 262 46 46 46 12 12 12 264
 264 264 149 83 351 351 351 351 94 94 94 94 246 246 246 305 305 305 350 350
 350 46 46 46 46 46 46 264 264 264 264 264 264 351 351 351 351 351 94 94
 94 340 246 246 246 246 305 305 350 350 350 46 46 46 46 46 46 264 264 264
 264 264 264 351 351 351 351 351 94 94 94 94 246 246 246 246 219 219 219 350
 350 46 46 46 46 123 123 314 264 264 190 190 190 107 351 351 351 56 56 56
 56 56 246 140 140 140 219 219 219 241 350 46 46 46 123 123 123 67 264 264
 190 190 190 107 362 362 362 56 56 56 56 56 56 140 140 140 140 219 219 241
 241 355 147 147 123 123 123 67 67 190 190 190 190 107 362 362 362 56 56 56
 56 56 56 140 140 140 140 140 241 241 355 355 147 147 147 147 67 67 67 67
 190 190 107 107 107 243 243 56 56 56 56 56 56 140 140 140 140 140 241 355
 355 355 147 147 147 147 67 67 67 67 107 107 107 107 243 243 243 56 56 56
 56 56 356 140 140 140 140 140 355 355 355 355 147 147 147 147 155 67 67 67
 67 107 135 135 243 243 243 234 205 100 100 100 217 217 217 217 281 281 281 355
 355 355 355 147 147 155 155 67 67 67 242 242 135 135 234 234 234 234 205 205
 100 100 217 217 217 217 281 281 281 355 355 355 355 155 155 155 155 155 67 242
 242 242 135 135 234 234 234 234 205 205 205 100 217 217 217 217 281 281 281 210
 210 355 355 155 155 155 155 155 242 242 242 242 128 128 234 234 234 234 205 205
 205 205 217 217 217 217 281 281 210 210 210 210 254 254 254 254 254 254 118 242
 290 290 128 128 128 234 234 234 205 205 205 205 208 217 238 238 238 210 210 210
 210 210 254 254 254 254 254 254 290 290 290 290 128 128 128 128 234 234 205 205
 205 4 4 4 238 238 238 353 353 353 353 353 254 254 254 254 254 254 290 290
 290 290 128 128 128 128 389 389 389 205 4 4 4 4 238 238 238 353 353 353
 353 353 254 254 254 254 254 254 290 290 290 290 128 128 128 361 361 5 5 4
 4 4 4 4 238 238 353 353 353 353 353 353 66 66 66 66 254 290 290 290
 290 290 128 361 361 361 361 361 97 97 4 4 4 174 174 283 84 353 353 353
 353 353 66 66 66 66 66 290 290 290 82 63 63 177 361 361 361 361 97 97
 97 174 174 174 283 283 84 84 353 353 39 39 66 66 66 66 66 327 82 82
 63 63 63 177 361 361 361 361 97 97 97 174 174 174 283 283 283 84 84 39
 39 352 352 66 66 66 327 327 327 82 63 63 177 177 177 361 361 361 97 97
 174 174 174 283 283 283 283 283 84 39 39 352 352 352 352 327 327 327 327 82
 82 177 177 177 177 177 141 141 141 141 316 316 316 283 283 283 283 283 173 173
 173 173 352 352 352 327 327 327 327 327 239 239 239 239 177 141 141 141 141 141
 316 316 316 299 299 299 299 173 173 173 173 173 352 352 352 327 327 327 327 327
 239 239 239 239 239 141 141 141 141 141 141 316 316 299 299 299 299 277 173 173
 173 104 104 104 383 300 300 300 162 162 239 239 239 239 239 141 141 141 141 141
 141 141 299 299 299 299 299 277 277 104 104 104 104 104 383 300 300 300 162 162
 239 239 239 239 239 141 141 141 141 141 141 141 299 299 299 299 299 277 277 262
 262 104 262 262 383 162 300 300 162 162 239 239 239 239 239 239 141 141 141 141
 141 141 69 69 69 69 69 277 262 262 262 262 262 262 262 300 300 300 300 162
 59 59 149 149 149 149 141 141 141 258 258 76 69 69 69 69 69 69 262 262
 262 262 262 262 262 12 12 12 12 12 59 59 149 149 149 149 149 258 258 258
 76 76 69 69 69 69 69 69 262 262 262 262 262 262 262 12 12 12 12 12
 59 59 149 149 149 149 149 149 21 21 76 76 76 69 69 69 69 253 262 262
 262 262 262 262 262 12 12 12 12 12 164 164 149 149 149 351 351 351 94 94
 94 76 246 246 246 69 253 253 262 262 262 262 262 46 46 12 12 12 12 12
 120 164 164 149 351 351 351 351 94 94 94 94 246 246 246 246 350 350 350 350
 350 262 46 46 46 46 12 120 120 120 120 120 164 351 351 351 351 351 94 94
 94 94 246 246 246 246 219 219 350 350 350 46 46 46 46 46 46 120 120 120
 120 120 120 351 351 351 351 351 94 94 94 94 246 246 246 246 219 219 219 350
 350 46 46 46 46 46 46 120 120 120 190 190 190 351 351 351 351 351 56 139
 56 56 246 246 140 140 219 219 219 350 350 46 46 46 46 46 67 67 67 120
 190 190 190 190 362 362 362 56 139 139 139 139 140 140 140 140 140 219 219 219
 74 74 74 147 46 123 67 67 67 67 190 190 190 190 362 362 362 139 139 139
 139 139 140 140 140 140 140 140 219 355 355 355 355 147 147 147 67 67 67 67
 190 190 190 107 362 362 362 56 139 139 139 139 356 140 140 140 140 140 140 355
 355 355 355 147 147 147 67 67 67 67 67 190 107 107 107 243 243 56 139 139
 100 100 356 356 140 140 140 140 355 355 355 355 355 147 147 147 67 67 67 67
 67 135 135 135 135 234 234 234 100 100 100 100 100 356 356 281 281 281 281 281
 355 355 355 355 147 155 67 67 67 67 67 135 135 135 135 234 234 234 234 100
 100 100 100 217 217 281 281 281 281 281 355 355 355 155 155 155 67 67 67 67
 118 135 135 135 135 234 234 234 205 205 100 100 100 217 217 281 281 281 281 281
 80 355 80 254 155 155 155 118 118 118 118 135 135 135 234 234 234 234 205 205
 205 100 100 217 217 281 281 281 281 210 80 80 254 254 254 254 254 118 118 118
 118 290 128 128 128 234 234 234 205 205 205 205 100 217 238 45 45 281 281 353
 353 80 254 254 254 254 254 254 118 118 290 290 128 128 128 234 234 234 5 205
 205 205 4 4 238 45 45 45 353 353 353 353 254 254 254 254 254 254 290 290
 290 290 128 128 128 128 234 5 5 5 4 4 4 4 45 45 45 353 353 353
 353 353 254 254 254 254 254 254 290 290 290 290 128 128 361 361 361 5 5 5
 4 4 4 4 267 45 45 353 353 353 353 353 66 66 66 254 254 254 290 290
 290 63 63 361 361 361 361 361 5 97 97 4 4 4 267 84 84 84 353 353
 353 353 66 66 66 66 388 388 388 290 63 63 63 361 361 361 361 361 97 97
 97 97 174 267 283 283 84 84 84 353 353 66 66 66 66 66 388 388 388 388