# vtk DataFile Version 2.0
Data set from IO Version 6.4.197.9a0dee2
ASCII

DATASET RECTILINEAR_GRID
DIMENSIONS 31 31 31
X_COORDINATES 31 float
-1.933334 1.933334 5.800001 9.666668 13.533335 17.400002 21.266668 25.133335 29.000002 32.866669 36.733337 40.600002 44.466671 48.333336 52.200005 56.066669 59.933338 63.800003 67.666672 71.533340 75.400009 
79.266670 83.133339 87.000008 90.866676 94.733345 98.600006 102.466675 106.333344 110.200012 114.066673 
Y_COORDINATES 31 float
-1.933334 1.933334 5.800001 9.666668 13.533335 17.400002 21.266668 25.133335 29.000002 32.866669 36.733337 40.600002 44.466671 48.333336 52.200005 56.066669 59.933338 63.800003 67.666672 71.533340 75.400009 
79.266670 83.133339 87.000008 90.866676 94.733345 98.600006 102.466675 106.333344 110.200012 114.066673 
Z_COORDINATES 31 float
-1.933334 1.933334 5.800001 9.666668 13.533335 17.400002 21.266668 25.133335 29.000002 32.866669 36.733337 40.600002 44.466671 48.333336 52.200005 56.066669 59.933338 63.800003 67.666672 71.533340 75.400009 
79.266670 83.133339 87.000008 90.866676 94.733345 98.600006 102.466675 106.333344 110.200012 114.066673 
CELL_DATA 27000
SCALARS FeatureIds int 1
LOOKUP_TABLE default
 75 75 75 75 215 215 205 205 205 246 246 246 246 246 106 62 62 62 62 355
 43 43 43 163 163 163 381 381 381 381 75 75 75 395 395 395 205 205 205 246
 246 36 36 36 106 62 62 62 62 355 43 43 43 43 163 32 381 381 381 75
 75 75 395 395 395 395 345 345 345 36 36 36 36 117 106 106 62 62 62 43
 43 43 43 43 43 32 381 254 254 254 254 395 395 395 395 395 345 345 345 36
 36 36 36 117 117 106 62 62 62 43 43 43 43 224 224 224 254 254 254 254
 254 254 395 395 395 395 345 345 345 36 36 36 36 117 117 117 117 5 5 5
 5 5 224 224 224 224 254 254 254 254 254 254 254 395 395 395 257 257 257 257
 294 294 294 398 117 117 5 5 5 5 5 5 250 250 250 250 254 254 254 254
 254 254 254 254 310 310 257 257 257 257 257 294 398 398 398 195 5 5 5 5
 5 5 250 250 250 250 250 254 254 254 254 254 254 94 310 310 257 257 257 257
 257 398 398 398 195 195 195 5 5 5 5 250 250 250 250 250 250 254 254 254
 254 94 94 94 94 257 257 257 257 257 257 398 398 398 195 195 195 195 272 272
 272 250 250 250 250 250 278 278 254 254 94 94 94 94 94 94 257 257 257 257
 257 285 285 285 195 195 195 195 272 272 272 272 404 404 404 404 278 278 278 254
 94 94 94 94 94 171 171 257 51 51 51 285 285 285 285 195 195 195 272 272
 272 272 404 404 404 404 278 278 54 54 54 94 94 94 171 171 171 171 51 51
 51 285 285 285 285 285 195 195 272 272 272 272 234 234 404 404 278 278 54 54
 54 274 274 94 171 171 171 171 51 51 51 285 285 285 285 285 287 287 287 272
 272 234 234 234 234 234 234 54 54 54 274 274 274 274 171 171 171 171 51 51
 51 65 65 65 65 65 287 287 287 113 113 234 234 234 234 234 314 314 54 54
 274 274 274 292 292 171 171 90 90 90 90 65 65 65 65 65 287 287 113 113
 113 113 234 234 234 314 314 314 160 160 237 237 292 292 292 292 292 90 90 90
 90 65 65 65 65 65 191 191 113 113 113 113 234 234 314 314 314 314 237 237
 237 237 376 376 376 376 376 90 90 90 90 90 65 65 65 191 191 191 113 113
 113 113 304 304 314 314 314 237 237 237 237 237 376 376 376 376 376 90 90 90
 90 90 65 65 65 191 191 191 113 113 113 113 304 304 304 314 314 237 237 237
 237 237 376 376 376 376 2 2 2 2 2 2 316 316 316 316 316 316 113 113
 241 241 241 304 304 314 314 237 237 237 10 237 42 42 42 42 2 2 2 2
 2 2 316 316 316 316 316 316 397 397 241 241 241 241 304 79 79 237 10 10
 10 10 42 42 42 42 2 2 2 2 2 2 137 316 316 316 316 316 397 397
 397 241 241 241 253 79 79 79 10 10 10 307 42 42 42 2 2 2 2 2
 2 2 137 137 137 316 316 397 397 397 397 397 253 253 253 79 79 79 79 124
 124 124 42 300 300 385 385 385 2 2 2 137 137 137 137 28 28 28 397 397
 397 253 253 253 253 79 79 79 124 124 124 124 300 300 300 300 385 385 385 2
 176 176 137 137 137 28 28 28 28 317 317 253 253 253 253 253 79 79 124 124
 124 124 300 300 300 300 300 337 385 385 176 176 176 137 28 28 28 28 28 317
 317 253 253 253 253 253 74 74 74 124 124 342 342 300 300 300 300 337 337 337
 176 176 176 137 28 28 28 28 28 28 39 39 253 253 253 74 74 74 74 74
 342 342 342 342 300 300 300 337 337 176 176 176 176 176 295 295 295 28 41 41
 39 39 39 39 253 74 74 74 74 74 342 342 342 342 215 215 215 337 205 246
 246 246 246 295 295 295 295 41 41 41 39 39 39 39 39 74 74 74 74 74
 342 342 342 342 215 215 215 205 205 246 246 246 246 246 295 295 41 41 41 41
 39 39 39 163 163 163 381 381 270 270 342 342 342 342 215 215 215 205 205 246
 246 246 246 246 335 295 41 41 41 41 39 39 163 163 163 381 381 381 381 270
 75 75 75 75 215 215 215 215 205 246 246 246 246 335 335 335 335 62 62 43
 43 43 43 43 163 32 381 381 381 381 75 75 75 75 395 215 12 12 12 36
 36 36 36 106 106 106 62 62 62 43 43 43 43 43 32 32 381 381 381 75
 75 75 75 395 395 395 12 12 12 36 36 36 36 106 106 106 62 62 62 43
 43 43 43 43 43 32 32 381 381 75 254 75 395 395 395 395 12 12 12 36
 36 36 36 36 106 106 106 62 5 43 43 43 226 226 226 226 32 254 254 254
 254 254 395 395 395 12 12 12 12 36 36 36 36 36 106 106 5 5 5 5
 5 226 226 226 226 226 226 254 254 254 254 254 254 395 395 310 12 257 257 60
 294 294 294 398 398 398 5 5 5 5 5 5 226 226 226 226 226 254 254 254
 254 254 254 254 310 310 310 257 257 60 294 294 398 398 398 398 398 5 5 5
 5 5 250 250 250 250 250 254 254 254 254 254 254 94 310 310 310 257 257 60
 60 398 398 398 398 195 195 5 5 5 5 250 250 250 250 250 250 254 254 254
 254 254 94 94 310 310 310 257 257 60 60 398 398 398 195 195 195 195 272 272
 272 250 250 250 250 250 278 278 278 254 94 94 94 94 94 171 257 257 257 51
 51 285 285 285 195 195 195 195 272 272 272 272 250 250 250 250 278 278 278 254
 94 94 94 94 171 171 171 171 51 51 51 285 285 285 285 195 195 195 272 272
 272 272 404 83 83 83 278 278 278 54 274 274 94 94 171 171 171 171 51 51
 51 285 285 285 285 285 195 195 272 272 272 234 234 234 234 234 278 278 54 54
 274 274 274 171 171 171 171 171 51 51 51 285 285 285 285 285 287 287 287 287
 234 234 234 234 234 234 234 54 54 54 274 274 274 274 171 171 171 171 51 51
 51 285 285 285 285 285 287 287 287 113 113 234 234 234 234 234 314 160 160 160
 274 274 274 292 292 171 328 256 256 256 256 65 65 65 65 65 287 287 287 113
 113 234 234 234 234 234 314 160 160 160 160 160 292 292 292 292 328 256 256 256
 256 256 65 65 65 389 99 113 113 113 113 70 234 234 314 314 314 160 160 160
 237 237 376 376 376 376 376 256 256 256 256 256 389 65 389 99 99 99 113 113
 113 70 70 304 314 314 314 237 237 237 237 237 376 376 376 376 376 256 256 256
 256 256 389 389 389 99 99 99 99 113 113 70 304 304 304 314 314 237 237 237
 237 237 376 376 376 376 376 2 2 2 2 2 389 389 316 316 99 99 99 99
 241 241 241 304 15 15 237 237 237 237 237 237 376 376 376 376 2 2 2 2
 2 2 137 316 316 316 316 316 397 397 397 241 241 241 15 15 79 237 237 237
 307 307 307 42 42 2 2 2 2 2 2 2 137 137 316 316 316 397 397 397
 397 397 241 253 15 79 79 79 79 10 307 307 307 307 42 2 2 2 2 2
 2 2 137 137 137 316 28 397 397 397 397 397 253 253 253 79 79 79 79 124
 307 307 307 307 108 108 2 2 2 2 2 137 137 137 137 28 28 28 397 397
 397 253 253 253 253 79 79 79 79 124 124 307 307 300 300 108 385 385 385 2
 176 176 137 137 137 28 28 28 28 397 397 253 253 253 253 253 79 79 79 124
 124 410 410 300 300 300 300 337 385 385 176 176 137 137 28 28 28 28 28 28
 317 253 253 253 253 253 74 74 74 124 410 410 410 300 300 300 300 337 337 337
 176 176 176 137 28 28 28 116 28 28 39 39 253 253 253 253 74 74 74 74
 410 342 342 342 300 300 215 337 337 176 176 176 176 176 295 28 28 116 28 39
 39 39 39 39 253 74 74 74 74 74 342 342 342 342 215 215 215 215 205 246
 246 246 246 246 335 335 41 41 41 39 39 39 39 39 35 35 74 381 74 74
 342 342 342 342 215 215 215 215 205 246 246 246 246 335 335 335 41 41 41 41
 39 39 39 39 35 35 381 381 381 381 3 3 3 3 215 215 215 215 205 246
 246 246 246 335 335 335 335 41 41 41 39 39 39 163 163 381 381 381 381 381
 3 3 3 3 3 215 215 215 215 246 246 246 246 335 335 335 335 335 335 43
 43 43 43 43 32 32 381 381 381 3 75 75 75 75 395 12 12 12 12 12
 36 36 36 106 106 335 335 335 62 43 43 43 43 43 32 32 32 381 381 75
 75 75 75 395 395 12 12 12 12 12 36 36 36 106 106 106 335 62 43 43
 43 43 43 226 32 32 32 32 381 75 75 75 75 100 395 12 12 12 12 12
 36 36 36 36 106 106 106 62 5 43 43 226 226 226 226 226 32 32 254 254
 254 254 100 100 100 12 12 12 12 36 36 36 36 36 106 106 5 5 5 5
 5 226 226 226 226 226 226 391 391 254 254 254 100 100 100 12 12 12 12 60
 294 294 294 398 398 398 5 5 5 5 5 226 226 226 226 226 391 391 391 254
 254 254 100 100 310 310 310 60 60 60 60 294 398 398 398 398 398 5 5 5
 5 226 226 226 226 226 391 391 391 254 254 254 100 100 310 310 310 60 60 60
 60 398 398 398 398 398 195 5 5 5 5 250 250 250 250 250 250 391 254 254
 254 254 94 94 310 310 310 60 60 60 60 398 398 398 398 195 195 195 272 272
 272 250 250 250 250 250 278 278 278 56 56 94 367 367 171 171 171 60 60 60
 60 398 398 398 195 195 195 195 272 272 272 250 250 250 250 250 278 278 278 56
 56 367 367 367 171 171 171 171 51 51 51 285 285 285 285 195 195 195 101 101
 351 351 83 83 83 83 278 278 405 405 274 274 367 367 171 171 171 171 51 51
 51 285 285 285 285 285 195 195 101 101 101 351 83 83 83 83 83 405 405 405
 274 274 274 367 171 171 171 171 51 51 51 285 285 285 285 285 287 287 287 101
 101 351 234 234 234 234 234 405 405 160 274 274 274 274 171 171 328 256 256 256
 256 285 285 285 285 285 287 287 287 113 70 234 234 234 234 234 234 160 160 160
 160 274 274 292 328 328 328 256 256 256 256 256 389 389 389 389 287 287 287 70
 70 70 234 234 234 234 160 160 160 160 160 160 292 292 292 328 328 256 256 256
 256 256 389 389 389 389 99 99 99 70 70 70 70 234 234 234 160 160 160 160
 160 160 376 376 376 376 256 256 256 256 256 256 389 389 389 99 99 99 99 99
 70 70 70 70 314 314 359 359 160 160 237 237 376 376 376 376 376 256 256 256
 256 256 389 389 389 99 99 99 99 99 70 70 70 70 15 359 359 359 237 237
 237 237 376 376 376 376 2 2 256 256 256 256 389 389 99 99 99 99 99 99
 99 241 241 15 15 15 359 359 237 237 237 307 196 196 196 196 2 2 2 2
 2 129 129 9 9 99 99 99 397 397 397 397 15 15 15 15 15 359 237 237
 307 307 307 196 196 196 2 2 2 2 2 129 129 9 9 9 312 312 397 397
 397 397 397 15 15 15 79 79 79 237 307 307 307 307 196 108 2 2 2 2
 2 129 137 137 9 9 312 312 397 397 397 397 253 253 253 79 79 79 79 79
 307 307 307 307 108 108 108 2 2 2 2 137 137 137 137 28 28 28 397 397
 397 253 253 253 253 79 79 79 79 79 307 307 307 108 108 108 108 108 2 2
 2 137 137 137 137 28 28 28 28 28 397 253 253 253 253 253 79 79 79 124
 410 410 410 410 108 108 108 108 385 324 324 324 137 137 28 28 28 28 28 28
 53 253 253 253 253 253 74 74 74 410 410 410 410 410 300 108 108 108 337 324
 324 324 324 137 28 28 28 28 28 28 39 39 253 253 253 35 35 74 74 410
 410 410 410 410 300 215 215 337 337 324 324 324 324 335 335 28 28 28 28 39
 39 39 39 39 35 35 35 74 74 410 410 410 410 3 215 215 215 215 233 246
 246 246 246 335 335 335 335 335 41 39 39 39 39 39 35 35 35 381 381 410
 3 3 3 3 215 215 215 215 233 246 246 246 246 335 335 335 335 335 41 39
 39 39 39 39 35 35 35 381 381 3 3 3 3 3 215 215 215 215 215 246
 246 246 246 335 335 335 335 335 41 39 39 39 39 39 35 35 381 381 381 3
 3 3 3 3 3 387 387 387 233 233 233 246 81 81 335 335 335 335 58 58
 58 43 43 43 32 32 32 32 381 3 3 3 3 3 387 387 387 12 12 12
 36 36 81 81 335 335 335 335 58 43 43 43 43 32 32 32 32 32 32 3
 75 75 75 100 387 387 12 12 12 12 36 36 36 106 106 106 335 309 309 309
 43 43 226 226 32 32 32 32 32 3 100 100 100 100 100 12 12 12 12 12
 36 36 36 36 106 106 106 309 309 309 309 226 226 226 226 226 226 391 391 391
 100 100 100 100 100 12 12 12 12 12 36 36 36 36 398 220 220 309 309 309
 226 226 226 226 226 226 226 391 391 391 100 100 100 100 100 100 12 12 60 60
 60 60 398 398 398 398 220 5 5 5 226 226 226 226 226 226 391 391 391 391
 100 100 100 100 100 100 100 60 60 60 60 60 398 398 398 398 398 5 5 5
 5 226 226 226 226 226 391 391 391 391 254 100 100 100 100 100 310 60 60 60
 60 398 398 398 398 398 195 5 5 5 5 226 226 226 226 226 391 391 391 391
 56 100 100 100 100 310 310 60 60 60 60 398 398 398 398 195 195 195 272 183
 183 250 250 250 250 250 391 278 56 56 56 367 367 367 367 171 171 60 60 60
 60 398 398 398 195 195 195 195 101 101 351 83 83 83 83 83 278 405 56 56
 405 367 367 367 367 171 171 171 51 51 51 285 285 285 285 195 195 195 101 101
 351 351 83 83 83 83 405 405 405 405 405 367 367 367 367 328 328 328 51 51
 51 285 285 285 285 285 195 101 101 101 101 351 83 83 83 83 405 405 405 405
 326 326 367 367 328 328 328 328 51 51 51 285 285 285 285 285 287 287 101 101
 351 351 83 83 83 83 83 405 405 405 160 326 326 328 328 328 328 328 256 256
 256 389 389 389 389 389 287 287 248 248 70 70 234 234 234 234 160 160 160 160
 160 160 326 328 328 328 328 256 256 256 256 389 389 389 389 389 389 287 287 70
 70 70 70 234 234 234 160 160 160 160 160 160 160 328 328 328 328 256 256 256
 256 256 389 389 389 389 99 99 99 70 70 70 70 70 234 160 160 160 160 160
 160 160 160 376 328 328 328 256 256 256 256 389 389 389 389 389 99 99 99 99
 70 70 70 70 70 359 359 359 160 160 160 160 160 376 376 376 192 192 256 256
 256 389 389 389 389 99 99 99 99 99 70 70 70 70 15 359 359 359 359 160
 237 237 196 196 196 196 192 192 192 192 192 389 389 389 389 99 99 99 99 99
 70 70 15 15 15 15 359 359 359 237 307 307 196 196 196 196 192 192 192 192
 129 129 129 9 9 99 99 99 99 397 397 15 15 15 15 15 15 359 359 237
 307 307 307 196 196 196 2 2 192 192 129 129 129 9 9 9 312 312 312 397
 397 397 15 15 15 15 15 79 407 237 307 307 307 307 108 108 2 2 2 2
 129 129 129 9 9 9 312 312 312 397 397 397 253 253 15 15 79 79 79 307
 307 307 307 307 108 108 108 2 2 129 129 129 129 9 9 9 312 312 312 397
 397 253 253 253 253 253 79 79 79 410 410 410 410 108 108 108 108 108 108 129
 129 129 129 137 9 28 28 28 28 28 53 253 253 253 253 253 79 79 410 410
 410 410 410 410 108 108 108 108 108 324 324 324 324 137 28 28 28 28 28 53
 53 53 253 253 253 253 223 223 223 410 410 410 410 410 108 108 108 108 324 324
 324 324 324 324 127 28 28 28 53 53 53 53 53 253 35 35 223 223 223 410
 410 410 410 410 410 108 108 233 233 324 324 324 324 324 335 335 28 232 53 53
 53 53 39 39 35 35 35 223 223 410 410 410 410 410 410 215 215 233 233 233
 324 324 81 81 335 335 335 335 53 53 39 39 39 35 35 35 35 35 223 410
 3 3 3 3 215 215 215 233 233 233 233 246 81 81 335 335 335 335 58 58
 39 39 39 35 35 35 35 35 381 3 3 3 3 3 215 215 215 215 233 233
 233 246 81 81 335 335 335 335 58 58 58 39 39 35 35 35 35 381 381 3
 3 3 3 3 203 203 387 387 233 233 233 81 81 81 81 335 335 335 58 58
 58 58 319 319 32 32 32 32 3 3 3 3 3 3 203 387 387 387 12 233
 233 81 81 81 81 335 335 335 58 58 58 58 319 319 32 32 32 32 32 3
 75 75 100 100 100 387 387 12 12 12 36 36 36 81 81 335 335 309 309 309
 309 309 319 319 32 32 32 32 32 3 100 100 100 100 100 12 12 12 12 12
 36 36 36 36 220 220 309 309 309 309 309 309 226 226 226 226 32 391 391 391
 100 100 100 100 100 100 12 12 12 12 36 36 36 220 220 220 220 309 309 309
 309 226 226 226 226 226 391 391 391 391 100 100 100 100 100 100 12 12 60 60
 60 299 398 398 220 220 220 309 309 309 309 226 226 226 226 226 391 391 391 391
 100 100 100 100 100 100 100 60 60 60 60 299 398 398 398 220 220 220 5 5
 183 226 226 226 226 226 391 391 391 391 100 100 100 100 100 100 100 60 60 60
 60 398 398 398 398 384 384 384 5 183 183 183 226 226 226 226 391 391 391 391
 56 100 100 100 100 100 60 60 60 60 60 398 398 398 363 363 363 363 363 183
 183 183 183 166 166 166 391 391 56 56 405 367 367 367 367 367 328 60 60 60
 60 398 398 398 363 363 363 363 363 183 183 183 166 166 166 166 405 405 405 56
 405 367 367 367 367 328 328 328 60 51 60 398 285 363 363 363 363 363 101 101
 101 351 83 83 83 83 405 405 405 405 405 367 367 367 367 328 328 328 328 51
 51 285 285 285 363 363 363 363 101 101 101 351 83 83 83 83 405 405 405 405
 326 326 367 367 328 328 328 328 328 354 354 389 389 389 389 389 363 248 248 248
 248 351 83 83 83 83 405 405 405 405 326 326 326 328 328 328 328 328 256 354
 354 389 389 389 389 389 389 248 248 248 248 70 83 83 83 83 160 160 160 160
 160 326 326 328 328 328 328 328 256 256 256 389 389 389 389 389 389 389 248 248
 70 70 70 70 392 392 392 160 160 160 160 160 326 328 328 328 328 256 256 256
 256 389 389 389 389 389 389 99 99 70 70 70 70 70 392 392 392 160 160 160
 160 160 160 328 328 328 328 256 256 256 256 389 389 389 389 389 99 99 99 99
 70 70 70 70 392 392 359 359 160 160 160 160 160 196 328 328 192 192 192 192
 256 389 389 389 389 99 99 99 99 99 70 70 70 15 15 359 359 359 359 160
 407 128 196 196 196 196 192 192 192 192 192 389 389 389 389 99 99 99 99 99
 99 70 15 15 15 15 359 359 359 407 407 128 196 196 196 196 192 192 192 192
 129 129 129 129 9 99 99 99 99 99 240 240 15 15 15 15 15 359 407 407
 307 307 307 196 196 192 192 192 192 192 129 129 129 129 9 9 312 312 312 397
 397 397 15 15 15 15 15 407 407 407 307 307 307 307 108 108 63 63 63 129
 129 129 129 129 9 9 312 312 312 397 397 397 253 253 87 87 87 87 407 307
 307 307 307 410 108 108 108 63 63 129 129 129 129 129 9 9 312 312 312 397
 397 253 253 253 87 87 87 87 410 410 410 410 410 410 108 108 108 63 63 129
 129 129 129 129 127 127 28 28 53 53 53 53 253 253 87 87 87 223 410 410
 410 410 410 410 108 108 108 63 63 324 324 324 324 127 127 127 232 232 53 53
 53 53 53 253 87 87 223 223 223 410 410 410 410 410 410 108 108 63 63 324
 324 324 324 127 127 127 232 232 232 53 53 53 53 53 35 223 223 223 223 410
 410 410 410 410 410 410 108 233 233 324 324 324 324 324 127 127 232 232 53 53
 53 53 53 53 35 35 223 223 223 410 410 410 410 410 410 203 203 233 233 233
 324 324 81 81 81 335 335 232 53 53 53 53 53 35 35 35 35 223 223 410
 3 3 3 3 203 203 203 233 233 233 233 81 81 81 81 335 335 58 58 58
 58 58 39 35 35 35 35 223 223 3 3 3 3 3 203 203 203 233 233 233
 233 81 81 81 81 335 335 58 58 58 58 58 58 35 35 35 35 381 3 3
 3 3 3 203 203 203 203 233 233 233 233 81 81 81 81 81 335 58 58 58
 58 58 319 319 319 409 409 409 3 3 3 3 100 100 203 387 387 387 233 233
 233 81 81 81 81 81 335 58 58 58 58 58 319 319 319 32 32 32 68 3
 100 100 100 100 100 387 387 12 12 12 233 81 81 81 81 81 309 309 309 309
 309 309 319 319 319 32 32 68 68 68 100 100 100 100 100 100 12 12 12 12
 178 178 178 81 220 220 309 309 309 309 309 309 226 226 226 226 391 391 391 391
 100 100 100 100 100 100 100 12 12 12 299 299 299 220 220 220 220 309 309 309
 309 309 226 226 226 226 391 391 391 391 100 100 100 100 100 100 100 12 60 60
 299 299 299 398 220 220 220 309 309 309 309 226 226 226 226 226 391 391 391 391
 100 100 100 100 100 100 100 60 60 60 299 299 299 398 220 220 220 220 309 183
 183 183 226 226 226 226 391 391 391 391 100 100 100 100 100 100 100 60 60 60
 299 299 299 398 384 384 384 384 183 183 183 183 183 166 166 166 391 391 391 391
 269 269 269 100 100 100 100 60 60 60 338 299 398 363 363 363 363 363 363 183
 183 183 183 166 166 166 166 391 391 56 269 269 269 367 367 328 328 338 338 338
 338 338 398 363 363 363 363 363 363 183 183 183 166 166 166 166 166 405 405 405
 405 269 367 367 367 328 328 328 338 338 338 338 363 363 363 363 363 363 101 101
 166 166 166 166 166 166 405 405 405 405 405 326 367 367 328 328 328 328 338 338
 338 230 389 363 363 363 363 363 101 101 101 166 166 83 83 83 405 405 405 405
 326 326 326 328 328 328 328 328 354 354 354 230 389 389 389 389 389 248 248 248
 248 248 83 83 83 83 405 405 405 405 326 326 326 328 328 328 328 328 354 354
 354 389 389 389 389 389 389 248 248 248 248 248 83 83 83 392 392 153 160 326
 326 326 326 328 328 328 328 328 256 354 354 389 389 389 389 389 389 248 248 248
 248 70 70 392 392 392 392 160 160 160 160 326 326 328 328 328 328 328 256 256
 389 389 389 389 389 389 389 99 99 70 70 70 70 392 392 392 392 160 160 160
 160 160 326 328 328 328 328 328 256 256 389 389 389 389 389 389 389 99 99 99
 70 70 70 392 392 392 392 160 160 160 407 407 407 268 328 328 192 192 192 192
 389 389 389 389 389 389 99 99 99 240 240 70 70 29 392 392 392 359 407 407
 407 128 128 196 196 192 192 192 192 192 192 389 389 389 389 389 99 99 240 240
 240 240 240 15 15 15 407 407 407 407 407 128 128 196 196 192 192 192 192 192
 129 129 129 129 389 389 99 99 240 240 240 240 240 15 15 15 15 407 407 407
 407 128 128 196 196 192 192 192 192 192 129 129 129 129 9 9 312 312 240 240
 240 240 87 87 87 87 87 407 407 407 407 307 307 307 108 63 63 63 63 129
 129 129 129 129 9 9 312 312 240 240 240 240 87 87 87 87 87 87 407 407
 410 410 410 410 410 63 63 63 63 129 129 129 129 129 9 9 312 312 312 240
 53 87 87 87 87 87 87 87 407 410 410 410 410 410 410 63 63 63 63 63
 129 129 129 127 127 127 232 232 53 53 53 53 87 87 87 87 87 223 223 410
 410 410 410 410 410 63 63 63 63 63 324 324 129 127 127 127 232 232 232 53
 53 53 53 87 87 87 223 223 223 410 410 410 410 410 410 63 63 63 63 324
 324 324 324 127 127 127 232 232 232 53 53 53 53 53 87 87 223 223 223 410
 410 410 410 410 410 63 63 63 233 324 324 324 324 127 127 127 232 232 232 53
 53 53 53 53 35 35 223 223 223 410 410 410 410 410 410 203 203 233 233 233
 233 324 81 81 81 81 232 232 58 53 53 53 53 53 35 35 223 223 223 410
 410 410 410 410 203 203 203 233 233 233 233 81 81 81 81 81 335 58 58 58
 58 58 53 409 409 409 409 409 223 410 3 3 3 203 203 203 203 233 233 233
 233 81 81 81 81 81 335 58 58 58 58 58 58 409 409 409 409 409 3 3
 3 197 197 203 203 203 203 233 233 233 233 81 81 81 81 81 335 58 58 58
 58 58 319 319 409 409 409 409 409 82 364 364 100 100 203 203 203 233 233 233
 233 81 81 81 81 81 335 58 58 58 58 58 319 319 319 409 409 409 68 82
 100 100 100 100 100 100 170 170 170 233 233 178 178 81 81 81 365 309 309 309
 309 309 319 319 319 409 68 68 68 68 100 100 100 100 100 100 170 170 170 170
 178 178 178 178 220 365 365 365 309 309 309 309 226 226 226 68 68 68 68 68
 100 100 100 100 100 100 170 170 170 170 299 178 178 220 220 220 365 365 309 309
 309 309 226 226 50 226 68 68 68 68 100 100 100 100 100 100 100 170 170 299
 299 299 299 299 220 220 365 365 365 309 309 226 226 226 50 50 391 391 391 391
 100 100 100 100 100 100 100 100 60 60 299 299 299 299 220 220 365 365 365 183
 183 183 226 226 50 50 391 391 391 391 269 269 100 100 100 100 100 338 338 338
 299 299 299 299 363 384 384 365 365 183 183 183 166 166 166 166 391 391 391 391
 269 269 269 269 100 100 338 338 338 338 338 299 299 363 363 363 363 363 183 183
 183 183 166 166 166 166 166 391 391 269 269 269 269 269 269 328 338 338 338 338
 338 338 299 363 363 363 363 363 363 183 183 166 166 166 166 166 166 405 405 269
 269 269 269 269 328 328 328 338 338 338 338 338 338 363 363 363 363 363 363 166
 166 166 166 166 166 166 166 405 405 405 269 269 269 328 328 328 328 328 338 338
 338 230 230 230 363 363 363 363 248 248 166 166 166 166 166 166 166 405 405 405
 326 326 326 328 328 328 328 328 354 354 230 230 230 389 389 389 363 248 248 248
 248 166 166 166 83 166 153 153 153 326 326 326 326 328 328 328 328 328 354 354
 230 230 230 389 389 389 389 248 248 248 248 248 166 392 392 392 153 153 153 326
 326 326 326 328 328 328 328 328 328 354 230 230 389 389 389 389 389 346 248 248
 248 70 70 392 392 392 153 153 153 326 160 326 326 328 328 328 328 328 328 380
 389 389 389 389 389 389 389 346 346 248 70 70 70 392 392 392 392 160 160 160
 407 407 268 268 268 328 328 380 380 380 389 389 389 389 389 389 389 346 346 240
 240 70 29 29 392 392 392 407 407 407 407 407 268 268 268 328 380 380 380 380
 380 389 389 389 389 389 389 240 240 240 240 240 29 29 29 392 407 407 407 407
 407 407 407 268 268 268 380 380 380 380 380 380 389 389 389 389 99 240 240 240
 240 240 240 29 29 15 407 407 407 407 407 407 407 268 268 380 380 380 380 380
 380 129 129 129 389 389 240 240 240 240 240 240 240 15 15 15 407 407 407 407
 407 407 407 407 268 63 63 63 380 380 129 129 129 129 129 115 240 240 240 240
 240 240 87 87 87 87 87 407 407 407 407 407 407 410 410 63 63 63 63 63
 129 129 129 129 129 115 240 240 240 240 240 240 87 87 87 87 87 407 407 407
 410 410 410 410 410 63 63 63 63 63 129 129 129 129 129 127 115 240 240 240
 240 87 87 87 87 87 87 87 407 407 410 410 410 410 410 63 63 63 63 63
 129 129 129 127 127 127 232 232 53 53 53 251 87 87 87 87 87 87 87 410
 410 410 410 410 410 63 63 63 63 63 129 129 129 127 127 127 232 232 232 53
 53 251 251 87 87 87 87 223 223 410 410 410 410 410 410 63 63 63 63 63
 324 324 324 127 127 127 232 232 232 53 53 251 251 87 87 87 223 223 223 410
 410 410 410 410 410 63 63 63 63 233 324 324 324 127 127 127 127 232 232 53
 53 53 251 87 87 87 223 223 223 410 410 410 410 410 410 203 63 233 233 233
 233 81 81 81 111 111 127 232 58 53 53 53 53 409 409 409 409 223 223 410
 410 410 410 410 203 203 203 233 233 233 233 81 81 81 111 111 111 58 58 58
 58 58 53 409 409 409 409 409 223 410 3 3 410 203 203 203 203 233 233 233
 233 81 81 81 81 111 111 58 58 58 58 58 58 409 409 409 409 409 409 3
 82 197 197 197 197 203 121 121 233 233 233 37 81 81 81 81 335 58 58 58
 58 58 107 107 409 409 409 409 409 82 364 364 364 197 197 203 170 121 233 233
 37 37 37 81 81 81 259 259 259 259 58 107 107 107 107 409 409 409 82 82
 364 364 364 100 100 170 170 170 170 170 178 178 178 178 81 365 365 365 309 309
 309 309 107 107 107 68 68 68 68 68 364 364 100 100 100 100 170 170 170 170
 178 178 178 178 178 365 365 365 365 309 309 309 107 107 107 68 68 68 68 68
 100 100 100 100 100 100 170 170 170 170 178 178 178 178 220 365 365 365 365 365
 309 309 50 50 50 50 68 68 68 68 100 100 100 100 100 100 100 170 170 299
 299 299 299 299 220 365 365 365 365 365 309 50 50 50 50 50 50 391 391 391
 100 344 344 100 100 100 100 96 338 299 299 299 299 299 220 365 365 365 365 365
 183 183 50 50 50 50 50 391 391 321 269 269 344 344 344 344 344 338 338 338
 338 299 299 103 103 243 243 243 243 183 183 166 166 166 166 166 166 391 321 321
 269 269 269 344 344 344 344 338 338 338 338 338 103 103 103 363 243 243 243 243
 166 166 166 166 166 166 166 166 269 269 269 269 269 269 344 344 338 338 338 338
 338 338 103 103 103 363 363 363 243 166 166 166 166 166 166 166 166 166 125 269
 269 269 269 269 328 328 328 338 338 338 338 338 103 103 103 363 363 363 325 166
 166 166 166 166 166 166 166 125 125 269 269 269 269 269 328 328 328 328 338 338
 230 230 230 230 103 363 325 325 325 166 166 166 166 166 166 166 166 125 125 125
 326 326 326 328 328 328 328 328 231 231 230 230 230 230 389 389 325 325 325 248
 248 166 166 166 166 153 153 153 153 125 326 326 326 328 328 328 328 328 231 231
 230 230 230 389 389 389 389 325 248 248 248 248 166 166 153 153 153 153 153 153
 326 326 326 328 328 328 328 328 231 231 230 230 230 389 389 92 346 346 346 248
 248 70 29 29 392 153 153 153 153 153 160 326 64 64 328 328 328 328 380 380
 230 230 389 389 389 92 92 346 346 346 240 240 29 29 29 29 392 153 160 160
 407 407 268 268 268 328 380 380 380 380 380 389 389 389 389 92 92 346 346 240
 240 240 29 29 29 29 392 407 407 407 407 407 268 268 268 268 380 380 380 380
 380 389 389 389 389 389 77 77 240 240 240 240 29 29 29 29 407 407 407 407
 407 407 268 268 268 268 380 380 380 380 380 380 389 389 389 389 77 240 240 240
 240 240 29 29 29 29 407 407 407 407 407 407 407 268 268 380 380 380 380 380
 380 55 55 55 291 291 240 240 240 240 240 240 29 29 29 29 407 407 407 407
 407 407 407 407 268 380 380 380 380 380 380 190 190 129 291 115 240 240 240 240
 240 240 87 87 87 87 407 407 407 407 407 407 407 407 63 63 63 63 63 63
 190 190 190 129 115 115 115 240 240 240 240 240 87 87 87 87 87 407 407 407
 407 410 410 410 63 63 63 63 63 63 190 190 129 129 115 115 115 115 115 240
 240 87 87 87 87 87 87 87 407 407 410 410 410 410 63 63 63 63 63 63
 63 129 129 127 127 115 115 115 115 251 251 251 87 87 87 87 87 87 87 410
 410 410 410 410 63 63 63 63 63 63 63 275 275 127 127 127 232 232 232 251
 251 251 251 87 87 87 87 87 87 410 410 410 410 410 410 63 63 63 63 63
 275 275 275 127 127 127 232 232 232 251 251 251 251 251 87 87 87 223 223 410
 410 410 410 410 410 63 63 63 356 356 356 275 275 127 127 127 127 232 232 53
 251 251 251 251 120 120 120 223 223 410 410 410 410 410 410 63 121 356 356 356
 356 356 81 81 111 111 353 232 58 350 251 251 251 251 120 120 120 223 223 410
 410 410 197 197 197 203 121 121 356 356 356 81 81 81 111 111 353 58 58 58
 58 58 251 409 409 409 409 409 409 410 197 197 197 197 197 203 121 121 233 233
 233 81 81 81 111 111 353 58 58 58 58 58 409 409 409 409 409 409 409 410
 82 197 197 197 197 121 121 121 121 121 37 37 110 110 110 110 110 259 259 259
 259 107 107 107 107 409 409 409 82 82 82 364 364 197 197 197 121 121 121 37
 37 37 37 110 110 110 259 259 259 259 259 107 107 107 107 409 409 409 82 82
 364 364 364 364 40 40 170 170 170 37 37 37 37 37 110 365 365 365 259 259
 259 107 107 107 107 107 68 68 82 82 364 364 364 364 40 40 170 170 170 170
 178 178 178 178 178 365 365 365 365 365 259 107 107 107 107 107 68 68 68 68
 364 364 364 100 100 40 170 170 170 170 178 178 178 178 365 365 365 365 365 365
 309 50 50 50 50 50 68 68 68 68 344 344 344 344 344 344 100 170 170 14
 178 299 178 206 365 365 365 365 365 365 365 50 50 50 50 50 50 68 68 321
 321 344 344 344 344 344 96 96 96 96 299 299 299 103 243 243 243 243 243 243
 277 277 50 50 50 50 50 50 321 321 321 344 344 344 344 344 96 96 96 338
 338 103 103 103 103 243 243 243 243 243 277 277 166 50 50 50 50 50 321 321
 269 269 344 344 344 344 96 96 338 338 338 103 103 103 103 243 243 243 243 243
 277 166 166 166 166 166 166 166 321 321 269 269 269 344 344 344 96 338 338 338
 338 103 103 103 103 103 243 243 243 243 166 166 166 166 166 166 166 125 125 269
 269 269 269 269 344 344 338 338 338 338 338 103 103 103 103 103 325 325 325 358
 166 166 166 166 166 166 166 125 125 125 125 269 269 269 328 328 328 231 231 231
 231 230 230 103 103 325 325 325 325 358 358 166 166 166 166 166 166 125 125 125
 125 125 326 328 328 328 328 231 231 231 231 230 230 230 103 325 325 325 325 358
 358 166 166 166 166 153 153 153 125 125 125 125 64 64 328 328 328 231 231 231
 231 230 230 230 389 389 325 325 325 248 248 293 293 293 153 153 153 153 153 125
 326 326 64 64 64 328 328 231 231 231 231 230 230 389 389 92 346 346 346 248
 293 293 293 29 29 153 153 153 153 125 407 64 64 64 64 328 328 231 231 231
 231 230 389 389 389 92 92 346 77 77 240 209 29 29 29 29 153 153 153 407
 407 407 64 64 64 64 380 380 380 380 380 389 389 389 389 92 77 77 77 77
 240 209 29 29 29 29 29 407 407 407 407 407 268 268 268 268 380 380 380 380