# vtk DataFile Version 2.0
Data set from IO Version 6.4.197.9a0dee2
ASCII

DATASET RECTILINEAR_GRID
DIMENSIONS 31 31 31
X_COORDINATES 31 float
-1.933334 1.933334 5.800001 9.666668 13.533335 17.400002 21.266668 25.133335 29.000002 32.866669 36.733337 40.600002 44.466671 48.333336 52.200005 56.066669 59.933338 63.800003 67.666672 71.533340 75.400009 
79.266670 83.133339 87.000008 90.866676 94.733345 98.600006 102.466675 106.333344 110.200012 114.066673 
Y_COORDINATES 31 float
-1.933334 1.933334 5.800001 9.666668 13.533335 17.400002 21.266668 25.133335 29.000002 32.866669 36.733337 40.600002 44.466671 48.333336 52.200005 56.066669 59.933338 63.800003 67.666672 71.533340 75.400009 
79.266670 83.133339 87.000008 90.866676 94.733345 98.600006 102.466675 106.333344 110.200012 114.066673 
Z_COORDINATES 31 float
-1.933334 1.933334 5.800001 9.666668 13.533335 17.400002 21.266668 25.133335 29.000002 32.866669 36.733337 40.600002 44.466671 48.333336 52.200005 56.066669 59.933338 63.800003 67.666672 71.533340 75.400009 
79.266670 83.133339 87.000008 90.866676 94.733345 98.600006 102.466675 106.333344 110.200012 114.066673 
CELL_DATA 27000
SCALARS FeatureIds int 1
LOOKUP_TABLE default
 309 309 309 309 76 76 76 76 76 358 358 358 358 72 72 72 384 384 124 124
 124 221 221 221 221 221 44 44 44 44 309 266 266 266 76 76 76 76 76 76
 358 358 395 395 395 72 384 384 389 389 389 221 221 221 221 44 44 44 44 44
 266 266 266 266 76 76 76 76 76 76 358 395 395 395 395 395 126 389 389 389
 389 389 200 200 200 44 44 44 44 257 266 266 266 266 76 76 76 76 76 76
 93 163 163 395 395 126 126 126 389 389 389 389 200 200 200 200 257 257 257 257
 266 266 266 266 76 76 76 76 93 93 93 163 163 163 163 126 126 126 389 389
 389 389 200 200 200 380 380 380 34 34 266 266 266 266 266 76 76 76 93 93
 93 163 163 163 163 163 126 126 389 389 389 389 200 200 200 380 380 380 34 34
 264 266 266 266 266 76 76 93 93 93 93 163 163 163 163 359 359 359 389 389
 389 389 200 200 200 380 34 34 34 34 264 264 264 264 266 171 171 171 171 171
 326 326 163 163 359 359 359 359 393 393 393 393 17 17 17 34 34 34 34 34
 264 264 264 264 171 171 171 171 171 171 326 326 326 163 359 359 359 393 393 393
 393 393 17 17 17 17 17 153 364 364 364 264 264 264 171 171 171 171 171 171
 326 326 326 326 366 359 359 393 393 393 393 393 393 17 17 17 153 153 364 364
 364 364 31 31 171 171 171 171 171 171 326 326 188 188 366 366 191 191 393 393
 393 393 17 17 17 17 17 364 364 364 364 31 31 31 31 171 171 171 171 171
 171 188 188 188 188 188 191 191 191 393 393 377 81 17 17 17 17 364 364 364
 364 31 31 31 31 31 171 171 171 171 188 188 188 188 188 188 191 191 191 191
 191 81 81 81 81 81 81 364 364 364 31 31 31 31 31 31 171 171 138 138
 138 188 188 188 188 251 251 251 251 251 81 81 81 81 81 81 81 364 364 364
 193 31 31 31 31 31 260 138 138 138 138 138 69 69 69 251 251 251 251 251
 81 81 81 81 81 81 81 81 193 193 193 31 31 31 31 260 260 260 138 138
 138 138 69 69 69 251 251 251 251 251 81 81 81 81 81 81 81 81 193 193
 193 41 41 41 41 260 260 260 260 138 138 138 69 69 69 251 251 251 251 251
 81 81 81 81 81 81 81 81 193 193 193 41 41 41 41 260 260 260 260 260
 138 138 69 69 69 251 251 251 251 251 81 81 81 81 81 81 81 179 193 193
 133 133 41 41 41 260 260 260 260 260 260 260 258 258 258 251 251 251 251 251
 84 81 81 81 81 81 179 179 179 179 133 133 133 41 41 260 260 260 260 260
 4 4 258 258 258 258 186 84 84 84 84 84 81 97 81 179 179 179 179 179
 133 133 133 41 41 324 324 324 324 4 4 4 4 258 258 258 186 186 84 84
 84 84 97 97 392 392 179 179 179 179 136 133 133 41 324 324 324 324 324 324
 4 4 4 4 258 186 186 186 84 84 84 84 145 145 392 392 392 179 179 179
 136 196 196 196 324 324 324 324 324 324 4 4 4 4 4 186 186 186 186 84
 84 145 145 145 392 392 392 179 136 136 136 196 196 196 302 324 324 324 324 290
 290 4 4 4 5 167 167 167 167 167 145 145 145 145 145 392 392 136 136 136
 136 196 196 196 302 302 302 290 290 290 290 290 5 5 5 167 167 167 167 167
 145 145 145 145 145 392 136 136 136 136 136 196 196 302 302 302 302 290 290 290
 290 290 5 5 5 167 167 167 167 167 167 145 145 158 158 158 162 162 136 136
 136 196 379 379 302 302 302 290 290 290 290 290 5 5 5 72 167 167 167 167
 167 158 158 158 158 158 162 162 162 162 309 379 379 379 379 302 302 290 290 290
 290 290 5 72 72 72 72 167 167 124 124 158 158 158 158 162 162 162 162 162
 309 309 309 379 379 379 302 290 290 290 358 358 358 72 72 72 72 384 124 124
 124 221 221 221 221 221 162 162 162 162 309 309 309 309 379 379 302 358 358 358
 358 358 358 72 72 72 384 384 124 124 124 221 221 221 221 221 162 162 162 162
 309 309 309 309 76 76 76 76 358 358 358 358 358 72 72 72 72 72 124 124
 124 124 221 221 221 44 44 44 44 44 309 266 266 266 76 76 76 76 76 358
 358 358 358 72 72 72 72 72 389 389 389 389 221 200 221 44 44 44 44 44
 266 266 266 266 76 76 76 76 76 76 358 163 163 395 395 395 126 389 389 389
 389 389 200 200 200 44 44 44 44 44 266 266 266 266 266 76 76 76 76 274
 163 163 163 163 163 126 126 389 389 389 389 389 200 200 200 200 380 44 44 44
 266 266 266 266 266 76 76 76 274 274 274 163 163 163 163 163 126 389 389 389
 389 389 200 200 200 380 380 380 380 380 266 266 266 266 266 76 76 274 274 274
 274 163 163 163 163 163 126 389 389 389 389 389 200 200 200 380 380 380 380 380
 30 266 266 266 266 76 171 171 274 274 274 163 163 163 163 163 359 359 389 389
 389 389 243 200 200 380 380 380 380 380 264 264 264 264 171 171 171 171 171 171
 171 163 163 163 163 163 359 359 393 393 243 243 243 17 17 362 380 380 380 380
 264 264 264 264 171 171 171 171 171 171 171 326 163 163 163 163 359 191 393 393
 393 243 243 17 17 17 17 364 364 364 364 364 352 352 171 171 171 171 171 171
 171 326 366 366 366 366 191 191 191 393 393 393 393 17 17 17 153 364 364 364
 364 364 352 31 171 171 171 171 171 171 171 366 366 366 366 366 191 191 191 191
 393 377 377 17 17 17 17 364 364 364 364 364 31 31 31 171 171 171 171 171
 171 366 366 366 366 366 191 191 191 191 191 377 377 17 17 17 364 364 364 364
 364 31 31 31 31 171 171 171 171 171 171 366 366 366 366 366 191 191 191 191
 191 377 81 81 81 81 58 364 364 364 31 31 31 31 31 31 171 171 138 138
 138 188 366 366 366 251 251 251 191 191 191 81 81 81 81 81 81 193 193 193
 193 31 31 31 31 31 260 138 138 138 138 138 69 69 366 251 251 251 251 251
 81 81 81 81 81 81 81 193 193 193 193 41 41 41 41 260 260 260 138 138
 138 138 69 69 69 251 251 251 251 251 81 81 81 81 81 81 81 330 193 193
 193 41 41 41 41 260 260 260 260 138 138 138 69 69 112 251 251 251 251 251
 81 81 81 81 81 81 330 330 193 193 193 41 41 41 41 260 260 260 260 260
 138 138 138 112 112 112 251 251 251 251 81 81 81 81 81 330 330 330 330 330
 133 133 41 41 41 260 260 260 260 260 260 138 258 258 112 112 112 251 251 84
 84 81 81 81 81 330 330 330 330 330 133 133 133 41 41 260 260 260 260 260
 260 4 258 258 15 15 15 84 84 84 84 84 97 97 97 349 330 179 179 133
 133 133 133 41 41 324 324 324 324 324 4 4 4 15 15 15 15 186 84 84
 84 84 97 97 97 392 179 179 179 179 136 154 154 154 324 324 324 324 324 324
 4 4 4 15 15 15 186 186 84 84 84 84 97 97 97 392 179 179 136 136
 136 154 154 154 324 324 324 324 324 324 4 4 4 15 15 15 15 186 84 84
 84 145 145 97 97 392 392 136 136 136 136 154 154 154 302 302 324 324 324 290
 290 290 369 15 15 15 167 167 167 84 145 145 145 145 145 392 136 136 136 136
 136 136 154 302 302 302 302 290 290 290 290 290 5 5 5 167 167 167 167 167
 145 145 145 145 158 158 136 136 136 136 136 136 136 302 302 302 302 290 290 290
 290 290 5 5 5 167 167 167 167 167 158 158 158 158 158 158 162 162 136 136
 19 19 379 379 302 302 302 290 290 290 290 290 358 5 72 72 167 167 167 167
 158 158 158 158 158 158 162 162 162 162 19 19 379 379 379 302 302 290 290 290
 290 358 358 72 72 72 72 72 124 124 124 158 158 158 158 158 162 162 162 162
 309 309 309 379 379 302 302 290 290 358 358 358 358 72 72 72 72 72 124 124
 124 158 158 158 158 158 162 162 162 162 309 309 309 309 379 302 367 358 358 358
 358 358 358 72 72 72 72 72 124 124 124 124 221 221 221 158 162 162 162 309
 309 309 309 309 76 76 76 76 358 358 358 358 358 358 72 72 72 72 124 124
 124 158 158 158 158 44 44 44 44 44 357 357 266 266 76 76 76 76 358 358
 358 358 358 358 72 72 72 363 389 389 389 389 158 200 158 44 44 44 44 44
 357 266 266 266 266 76 76 76 76 358 358 358 358 163 163 72 363 389 389 389
 389 389 200 200 200 44 44 44 44 44 266 266 266 266 266 76 76 76 274 274
 274 163 163 163 163 163 363 389 389 389 389 389 200 200 200 200 44 44 44 44
 30 266 266 266 266 266 76 76 274 274 274 163 163 163 163 163 126 389 389 389
 389 389 200 200 200 380 380 380 380 380 30 30 266 266 266 266 76 274 274 274
 274 163 163 163 163 163 163 389 389 389 389 389 200 200 200 380 380 380 380 380
 30 30 30 30 266 266 171 274 274 274 274 163 163 163 163 163 163 389 389 389
 243 243 243 243 362 362 380 380 380 380 30 30 30 30 340 171 171 171 171 274
 274 163 163 163 163 163 163 159 159 159 243 243 243 243 362 362 362 380 380 132
 352 352 352 352 340 171 171 171 171 171 171 366 366 366 366 366 191 159 159 159
 243 243 243 243 362 362 362 362 364 364 352 352 352 352 171 171 171 171 171 171
 171 366 366 366 366 366 191 191 191 191 393 243 243 243 17 362 362 362 364 364
 352 352 352 352 171 171 171 171 171 171 171 366 366 366 366 366 191 191 191 191
 377 377 377 377 17 17 362 364 131 131 131 352 352 31 31 171 171 171 171 171
 171 366 366 366 366 366 191 191 191 191 377 377 377 377 58 58 58 131 131 131
 131 352 31 31 31 171 171 171 171 171 171 366 366 366 366 366 191 191 191 191
 191 377 377 377 58 58 58 58 131 131 131 31 31 31 31 31 171 171 138 138
 138 366 366 366 366 366 191 191 191 191 191 377 81 81 58 58 58 58 131 131
 193 193 9 9 9 260 260 138 138 138 138 138 366 366 366 251 251 251 251 251
 191 81 81 81 58 58 58 58 193 193 193 41 41 41 41 260 260 260 138 138
 138 138 69 69 366 251 251 251 251 251 251 81 81 81 81 81 330 330 193 193
 193 41 41 41 41 260 260 260 260 138 138 138 138 112 112 112 112 251 251 251
 251 81 81 81 81 330 330 330 330 193 193 41 41 41 41 260 260 260 260 260
 138 138 112 112 112 112 112 112 251 222 222 81 81 81 330 330 330 330 330 330
 133 133 41 41 41 260 260 260 260 260 260 261 261 112 112 112 112 112 222 222
 222 81 97 349 349 349 330 330 330 330 133 133 133 41 41 260 260 260 260 260
 260 261 261 261 15 15 15 222 222 84 84 97 97 97 349 349 349 330 330 330
 133 133 133 41 41 324 324 324 324 324 4 261 261 261 15 15 15 15 84 84
 84 97 97 97 97 349 349 179 237 237 237 154 154 154 324 324 324 324 324 324
 4 261 261 261 15 15 15 15 84 84 84 97 97 97 97 97 179 179 237 237
 136 154 154 154 324 324 324 324 324 324 324 261 261 15 15 15 15 15 84 84
 84 97 97 97 97 97 97 136 136 136 136 154 154 154 302 324 324 324 324 290
 290 369 369 15 15 15 15 15 167 84 97 97 97 97 97 97 136 136 136 136
 136 154 154 154 302 302 302 290 290 290 290 369 369 95 95 95 95 167 167 167
 158 158 158 158 158 158 158 136 136 136 136 154 19 302 302 302 302 290 290 290
 290 290 290 95 95 95 95 95 167 167 158 158 158 158 158 158 158 162 136 136
 19 19 19 379 302 302 302 290 290 290 290 358 358 358 95 95 95 167 167 158
 158 158 158 158 158 158 162 162 162 162 19 19 19 379 379 367 367 367 290 290
 358 358 358 358 72 72 72 72 124 124 158 158 158 158 158 158 162 162 162 19
 19 309 309 379 379 367 367 367 358 358 358 358 358 358 72 72 72 72 124 124
 124 158 158 158 158 158 162 162 162 19 309 309 309 309 379 367 367 358 358 358
 358 358 358 358 72 72 72 72 124 124 124 158 158 158 158 158 162 44 162 309
 357 357 357 357 357 76 76 358 358 358 358 358 358 358 72 72 363 363 363 124
 146 146 158 158 158 44 44 44 44 357 357 357 357 357 266 76 76 76 358 358
 358 358 358 358 72 363 363 363 363 363 146 146 146 146 158 44 44 44 44 357
 357 357 357 266 266 76 76 76 274 358 358 358 358 358 163 363 363 363 363 389
 146 146 146 200 200 44 44 44 44 357 30 30 266 266 266 310 310 274 274 274
 274 163 163 163 163 163 363 363 389 389 389 389 200 200 200 200 44 44 44 357
 30 30 30 266 266 266 310 274 274 274 274 274 163 163 163 163 363 389 389 389
 389 389 200 200 200 380 380 380 380 30 30 30 30 30 266 266 274 274 274 274
 274 274 163 163 163 163 163 389 389 389 389 243 243 200 362 362 380 380 380 30
 30 30 30 30 30 74 274 274 274 274 274 274 163 163 163 163 163 159 159 389
 243 243 243 243 362 362 362 362 132 132 132 30 30 30 340 340 340 274 274 274
 274 274 163 163 163 163 159 159 159 159 243 243 243 362 362 362 362 362 132 132
 352 352 352 352 340 340 340 171 171 171 171 366 366 366 366 366 159 159 159 159
 243 243 243 362 362 362 362 362 132 132 352 352 352 352 340 340 171 171 171 171
 171 366 366 366 366 366 191 191 159 159 159 243 243 362 362 362 362 362 362 352
 352 352 352 352 340 340 171 171 171 171 366 366 366 366 366 366 191 191 191 191
 377 377 377 377 365 365 365 131 131 131 131 352 352 9 340 171 171 171 171 171
 366 366 366 366 366 366 191 191 191 191 377 377 377 377 365 365 365 131 131 131
 131 352 9 9 9 9 171 171 171 171 366 366 366 366 366 366 191 191 191 191
 377 377 377 377 58 58 58 131 131 131 131 9 9 9 9 9 171 171 205 138
 366 366 366 366 366 366 191 191 191 191 191 377 377 58 58 58 58 58 131 131
 193 9 9 9 9 9 9 138 138 138 138 138 366 366 366 366 191 191 191 191
 191 81 81 58 58 58 58 58 193 193 143 143 9 9 9 9 260 260 138 138
 138 138 366 366 366 251 251 251 251 251 251 291 291 291 58 58 330 330 330 330
 143 143 143 41 41 260 260 91 91 138 138 138 280 112 112 112 112 112 251 222
 222 291 291 291 330 330 330 330 330 330 143 143 143 41 41 260 260 91 91 91
 138 138 112 112 112 112 112 112 222 222 222 291 291 291 330 330 330 330 330 330
 143 143 143 41 41 260 260 91 91 91 91 261 261 112 112 112 112 222 222 222
 222 222 291 291 349 349 330 330 330 330 143 143 143 41 41 260 260 161 161 161
 161 261 261 261 261 15 15 222 222 222 222 97 97 97 349 349 349 330 330 330
 237 133 133 41 41 324 324 324 161 161 161 261 261 261 15 15 15 15 222 222
 222 97 97 97 97 349 349 330 237 237 237 154 154 154 324 324 324 324 161 161
 161 261 261 261 15 15 15 15 222 222 222 97 97 97 97 97 202 202 237 237
 154 154 154 154 154 324 324 161 161 161 161 369 261 261 15 15 15 15 15 222
 97 97 97 97 97 97 202 202 237 237 154 154 154 154 154 324 324 161 161 161
 369 369 369 261 15 15 15 15 15 222 97 97 97 97 97 97 202 202 136 136
 154 154 154 154 302 302 302 388 388 388 369 369 369 95 95 95 95 95 95 203
 203 158 158 158 158 158 202 202 136 136 154 154 154 367 367 367 367 367 388 290
 388 388 95 95 95 95 95 95 95 158 158 158 158 158 158 158 158 162 136 136
 19 19 19 19 367 367 367 367 388 290 358 358 358 95 95 95 95 95 95 158
 158 158 158 158 158 158 158 162 350 350 19 19 19 19 367 367 367 367 358 358
 358 358 358 358 72 72 72 72 124 124 158 158 158 158 158 158 162 162 350 350
 19 19 19 367 367 367 367 367 358 358 358 358 358 358 72 72 72 72 124 124
 158 158 158 158 158 158 158 162 350 350 357 357 357 367 367 367 367 367 358 358
 358 358 358 358 72 72 72 363 363 124 124 158 158 158 158 158 158 44 350 350
 357 357 357 357 357 357 76 358 358 358 358 358 358 358 363 363 363 363 363 363
 146 146 146 158 158 158 297 297 297 357 357 357 357 357 357 76 76 217 358 358
 358 358 358 358 363 363 363 363 363 363 146 146 146 146 158 297 297 297 297 357
 357 357 357 357 310 310 310 217 217 217 358 358 358 358 363 363 363 363 363 363
 146 146 146 146 146 297 297 297 297 357 30 30 30 357 310 310 310 217 217 217
 274 358 163 163 163 363 363 363 363 363 146 146 146 146 146 297 297 297 297 357
 30 30 30 30 74 310 310 217 217 274 274 274 163 163 163 163 363 363 363 363
 389 146 146 200 200 362 362 362 30 30 30 30 30 30 74 74 74 274 274 274
 274 274 163 163 163 163 363 363 363 389 243 243 243 200 362 362 362 362 132 30
 30 30 30 30 74 74 74 274 274 274 274 274 288 288 288 288 159 159 159 243
 243 243 243 362 362 362 362 362 132 132 132 30 30 30 340 340 340 345 345 345
 345 345 288 288 288 288 159 159 159 159 243 243 243 362 362 362 362 362 132 132
 132 352 352 340 340 340 340 340 345 345 345 345 288 288 288 288 159 159 159 159
 159 243 243 362 362 362 362 362 132 132 352 352 352 340 340 340 340 340 171 345
 345 366 366 366 366 366 191 159 159 159 159 243 243 362 362 362 362 362 132 132
 352 352 352 340 340 340 340 171 171 171 366 366 366 366 366 366 191 191 159 159
 377 377 377 365 365 365 365 362 131 131 131 352 352 340 340 340 340 171 171 171
 366 366 366 366 366 366 191 191 191 191 377 377 377 365 365 365 365 365 131 131
 131 9 9 9 9 9 171 205 205 205 366 366 366 366 366 366 191 191 191 90
 377 377 377 365 365 365 365 365 131 131 131 9 9 9 9 9 205 205 205 205
 205 366 366 366 366 366 191 191 191 90 90 377 377 58 58 58 58 58 131 131
 9 9 9 9 9 9 205 205 205 205 280 280 280 366 366 366 191 191 90 90
 90 90 291 58 58 58 58 58 330 330 143 143 9 9 9 9 91 91 205 205
 280 280 280 366 366 112 112 191 90 90 90 291 291 291 291 330 330 330 330 330
 143 143 143 9 9 91 91 91 91 91 280 280 280 112 112 112 112 112 222 222
 291 291 291 291 291 330 330 330 330 330 143 143 143 143 41 91 91 91 91 91
 280 280 280 112 112 112 112 112 222 222 222 291 291 291 291 330 330 330 330 330
 143 143 143 143 41 91 91 91 91 91 91 261 261 261 112 112 112 222 222 222
 222 222 291 291 291 349 330 330 330 330 143 143 143 143 41 91 91 91 161 161
 161 261 261 261 261 15 15 222 222 222 222 222 291 291 349 349 349 330 330 330
 237 143 143 143 161 161 161 161 161 161 161 261 261 261 261 15 15 15 222 222
 222 222 97 97 97 349 349 330 237 237 237 154 154 154 161 161 161 161 161 161
 161 261 261 261 15 15 15 15 222 222 222 97 97 97 97 97 202 202 237 237
 154 154 154 154 161 161 161 161 161 161 161 369 113 113 15 15 15 15 222 222
 222 97 97 97 97 97 202 202 202 237 154 154 154 154 154 161 161 161 161 161
 388 369 113 113 15 15 15 15 213 213 203 97 97 97 97 202 202 202 202 202
 154 154 154 154 367 367 161 388 388 388 388 388 53 53 53 95 95 95 213 203
 203 203 244 244 244 202 202 202 202 202 154 154 154 367 367 367 367 388 388 388
 388 388 53 53 53 95 95 95 95 203 203 203 158 244 158 158 202 202 350 350
 350 19 19 367 367 367 367 367 388 388 388 358 53 53 53 95 95 95 95 158
 158 158 158 158 158 158 158 350 350 350 350 19 19 367 367 367 367 367 388 358
 358 358 358 358 358 72 95 363 363 158 158 158 158 158 158 158 158 350 350 350
 350 19 19 367 367 367 367 367 358 358 358 358 358 358 358 363 363 363 363 363
 158 158 158 158 158 158 158 350 350 350 357 357 357 357 367 367 367 367 358 358
 358 358 358 358 358 363 363 363 363 363 146 158 158 158 158 158 158 350 350 350
 357 357 357 357 357 367 367 217 358 358 358 358 358 358 363 363 363 363 363 363
 146 146 146 146 158 297 297 297 297 357 357 357 357 357 357 367 217 217 217 358
 358 358 358 358 363 363 363 363 363 363 146 146 146 146 158 297 297 297 297 357
 357 357 357 357 357 310 217 217 217 217 217 358 358 363 363 363 363 363 363 363
 146 146 146 146 146 297 297 297 297 357 357 30 30 357 310 310 310 217 217 217
 217 217 160 184 184 363 363 363 363 363 146 146 146 146 146 297 297 297 297 357
 30 30 30 30 74 74 74 217 217 217 217 217 160 184 184 363 363 363 363 363
 317 317 317 317 362 362 362 362 30 30 30 30 30 30 74 74 74 217 217 345
 345 345 345 163 184 184 363 363 363 317 317 317 317 317 362 362 362 362 132 132
 30 30 30 30 74 74 74 345 345 345 345 345 288 288 288 288 159 159 159 317
 317 317 317 362 362 362 362 362 132 132 132 30 30 30 340 340 340 345 345 345
 345 345 288 288 288 288 159 159 159 159 159 317 317 362 362 362 362 362 132 132
 132 132 30 340 340 340 340 345 345 345 345 345 288 288 288 288 159 159 159 159
 159 37 37 362 362 362 362 362 132 132 132 132 352 340 340 340 340 340 345 345
 345 345 366 366 366 366 159 159 159 159 159 37 37 362 362 362 362 362 132 132
 114 352 352 340 340 340 340 340 345 345 345 366 366 366 366 366 191 159 159 159
 159 37 37 365 365 365 365 362 114 114 114 249 249 249 340 340 340 340 171 345
 366 366 366 366 366 366 191 191 191 191 377 377 377 365 365 108 365 365 114 114
 114 249 9 9 249 249 205 205 205 205 366 366 366 366 366 366 191 191 90 90
 90 377 377 365 365 365 365 365 114 114 114 9 9 9 9 9 205 205 205 205
 205 366 366 366 366 366 191 191 90 90 90 90 372 365 365 365 365 365 114 114
 9 9 9 9 9 9 205 205 205 205 280 280 280 366 325 325 325 191 90 90
 90 372 372 372 372 372 58 330 330 143 143 143 9 9 9 9 91 91 205 205
 280 280 280 280 325 325 325 325 90 90 90 291 291 291 291 291 330 330 330 143
 143 143 143 143 9 91 91 91 91 91 280 280 280 280 325 325 325 325 222 222
 291 291 291 291 291 291 330 330 330 143 143 143 143 143 9 91 91 91 91 91
 280 280 280 112 112 112 112 112 222 222 222 291 291 291 291 291 330 330 330 143
 143 143 143 143 143 91 91 91 91 91 91 261 261 261 112 112 112 222 222 222
 222 222 291 291 291 291 330 330 330 143 143 143 143 143 143 91 91 91 161 161
 161 261 261 261 261 262 15 222 222 222 222 222 291 291 291 349 349 330 63 63
 63 143 143 373 373 161 161 161 161 161 161 261 261 261 261 15 15 222 222 222
 222 222 97 97 97 349 349 63 63 63 63 154 154 373 373 161 161 161 161 161
 161 161 113 261 261 15 15 222 222 222 222 222 97 97 97 97 202 202 202 202
 154 154 154 373 161 161 161 161 161 161 161 161 113 113 15 15 15 15 213 213
 213 97 97 97 97 202 202 202 202 202 154 154 154 154 161 161 161 161 161 161
 161 161 113 113 53 226 226 213 213 213 213 201 201 201 201 202 202 202 202 202
 154 154 154 154 367 367 367 388 388 388 388 388 53 53 53 226 226 213 213 213
 203 203 244 244 244 202 202 202 202 202 350 154 154 367 367 367 367 388 388 388
 388 388 53 53 53 53 95 213 213 213 203 203 203 244 244 158 202 202 202 350
 350 350 19 367 367 367 367 367 388 388 388 388 53 53 53 53 95 95 213 213
 203 203 158 158 158 158 234 350 350 350 350 350 19 367 367 367 367 367 388 388
 388 358 358 53 53 53 363 387 387 158 158 158 158 158 158 158 234 350 350 350
 350 350 19 367 367 367 367 367 358 358 358 358 358 358 358 363 363 387 387 387
 158 158 158 158 158 158 234 234 350 350 357 357 357 357 367 367 367 367 358 358
 358 358 358 358 358 363 387 387 387 363 146 146 158 158 158 158 234 234 350 350
 357 357 357 357 357 367 334 217 217 358 358 401 401 401 363 363 363 363 363 363
 146 146 146 146 356 356 356 297 297 357 357 357 357 357 357 357 217 217 217 217
 217 358 160 401 363 363 363 363 363 363 146 146 146 146 356 356 297 297 297 357
 357 357 357 357 357 310 217 217 217 217 217 160 160 184 184 363 363 363 363 363
 146 146 146 146 356 356 356 297 297 357 357 30 30 357 357 310 217 217 217 217
 217 160 160 184 184 184 363 363 363 363 146 146 146 146 356 356 356 297 297 357
 30 30 30 30 74 74 217 217 217 217 345 345 160 184 184 184 363 363 363 317
 317 317 317 317 317 362 362 362 30 30 30 30 30 30 74 74 74 345 345 345
 345 345 345 184 184 184 363 363 363 317 317 317 317 317 362 362 362 362 132 132
 30 30 30 30 74 74 74 345 345 345 345 345 345 288 288 184 159 159 317 317
 317 317 317 317 362 362 362 362 132 132 132 30 30 30 340 340 345 345 345 345
 345 345 288 288 288 288 159 159 159 159 317 317 317 362 362 362 362 362 132 132
 132 132 30 340 340 340 340 345 345 345 345 345 345 288 288 288 159 159 159 159
 37 37 37 362 362 362 362 362 132 132 132 132 30 340 340 340 340 345 345 345
 345 345 345 366 366 366 159 159 159 159 37 37 37 37 362 362 362 362 362 132
 114 114 340 340 340 340 340 340 345 46 345 345 366 366 366 366 159 159 159 159
 37 37 37 365 365 365 365 362 114 114 114 114 249 249 249 340 340 340 46 46
 46 366 366 366 366 366 191 191 191 191 37 37 37 365 365 365 365 365 114 114
 114 249 249 249 249 249 249 205 205 46 46 366 366 366 366 366 191 191 90 90
 90 37 365 365 365 365 365 365 114 114 114 249 249 249 249 249 249 205 205 205
 205 205 366 366 325 325 325 191 90 90 90 372 372 372 372 365 365 365 114 114
 249 249 249 249 249 249 249 205 205 205 205 280 280 325 325 325 325 325 90 90
 90 372 372 372 372 372 365 365 114 114 143 143 9 9 9 9 91 256 205 205
 280 280 280 325 325 325 325 325 90 90 90 372 372 372 372 372 400 400 400 143
 143 143 143 143 9 91 91 91 91 91 280 280 280 325 325 325 325 325 222 328
 328 328 372 291 291 291 400 400 400 143 143 143 143 143 9 91 91 91 91 91
 280 280 280 325 325 325 325 222 222 222 328 328 291 291 291 291 400 400 63 143
 143 143 143 143 143 91 91 91 91 91 91 403 261 262 262 262 262 222 222 222
 222 328 291 291 291 291 330 63 63 63 63 143 143 143 373 91 91 91 161 161
 161 403 403 262 262 262 262 222 222 222 222 222 291 291 291 291 63 63 63 63
 63 143 373 373 373 161 161 161 161 161 161 403 403 403 262 262 262 222 222 222
 222 222 97 97 97 329 63 63 63 63 63 63 373 373 373 161 161 161 161 161
 161 403 403 403 262 262 262 222 222 222 222 222 201 201 201 202 202 202 202 63
 63 154 373 373 373 161 161 161 161 161 161 161 403 403 226 226 226 213 213 213
 213 201 201 201 201 202 202 202 202 202 154 154 154 206 373 161 161 161 161 161
 161 161 113 226 226 226 226 213 213 213 213 201 201 201 201 202 202 202 202 202
 154 154 206 206 148 148 148 161 388 388 388 388 53 53 53 226 226 213 213 213
 213 203 201 201 201 201 202 202 202 202 350 350 206 206 367 148 367 388 388 388
 388 388 53 53 53 53 226 213 213 213 203 203 203 201 201 201 202 202 234 350
 350 350 206 367 367 367 367 367 388 388 388 388 53 53 53 53 121 121 121 213
 203 203 158 158 158 234 234 234 234 350 350 350 206 367 367 367 367 367 388 388
 388 388 53 53 53 53 363 121 121 121 158 158 158 158 158 234 234 234 350 350
 350 350 19 367 367 367 367 367 388 358 358 358 401 401 401 363 363 387 121 121
 158 158 158 158 158 234 234 234 350 350 357 357 357 357 367 367 367 367 367 358
 358 358 401 401 401 363 363 387 363 363 146 146 146 158 158 158 234 234 350 350
 357 357 357 357 334 334 334 278 278 278 401 401 401 401 401 363 363 363 363 363
 146 146 146 146 356 356 356 297 190 190 357 357 357 357 357 334 278 278 278 217
 160 160 160 160 160 363 363 363 363 363 146 146 146 356 356 356 356 297 190 190
 357 357 357 357 357 278 278 278 278 217 217 160 160 160 184 184 363 363 363 363
 146 146 146 146 356 356 356 190 190 190 30 30 30 252 252 310 217 217 217 217
 217 160 160 184 184 184 363 363 363 363 317 317 317 317 356 356 381 381 190 190
 30 30 30 30 252 74 217 217 217 345 345 160 160 184 184 184 363 363 363 317
 317 317 317 317 317 381 381 381 381 30 30 30 30 30 74 74 345 345 345 345
 345 345 160 160 184 184 184 397 397 317 317 317 317 317 317 381 381 381 381 30
 30 30 30 30 74 74 345 345 345 345 345 345 345 160 288 184 397 397 397 397
 317 317 317 317 362 51 362 381 381 132 132 30 30 30 340 340 345 345 345 345
 345 345 345 288 288 288 397 397 397 397 317 317 317 317 51 51 51 362 132 132
 347 347 347 340 340 340 345 345 345 345 345 345 345 288 288 288 397 397 397 397
 37 37 37 37 51 51 51 362 132 132 347 347 347 340 340 340 340 345 345 345
 345 345 345 345 366 155 155 159 159 37 37 37 37 37 51 51 51 362 114 114
 114 347 347 340 340 340 340 345 46 46 46 345 345 366 366 155 155 159 159 37
 37 37 37 37 365 365 365 114 114 114 114 114 249 249 249 249 340 194 46 46
 46 43 366 366 366 155 155 155 159 37 37 37 37 37 365 365 365 114 114 114
 114 249 249 249 249 249 194 194 46 46 46 43 43 366 267 267 267 267 90 90
 90 37 37 365 365 365 365 114 114 114 114 249 249 249 249 249 194 194 194 205
 43 43 43 325 325 325 325 325 90 90 90 372 372 372 372 365 365 114 114 114
 249 249 249 249 249 249 256 256 256 205 43 43 43 325 325 325 325 325 50 50
 90 372 372 372 372 372 372 400 114 114 143 249 249 249 249 249 256 256 256 205
 43 43 43 325 325 325 325 325 50 50 50 372 372 372 372 372 400 400 400 400
 143 143 143 143 83 83 91 256 91 91 280 280 295 325 325 325 325 325 50 50
 328 328 372 372 372 372 400 400 400 143 143 143 143 143 83 83 83 91 91 91
 91 295 295 295 325 325 325 325 222 222 328 328 328 372 372 372 400 400 400 63
 63 143 143 83 83 83 83 91 91 91 91 403 295 295 262 262 262 222 222 222
 328 328 328 291 291 291 400 400 63 63 63 63 143 373 83 83 83 91 161 161
 161 403 403 262 262 262 262 262 222 222 222 222 291 291 291 329 329 329 63 63
 63 63 373 373 373 83 161 161 161 161 161 403 403 403 262 262 262 262 222 222
 222 222 218 218 218 329 329 329 63 63 63 63 373 353 373 161 161 161 161 161
 161 403 403 403 262 262 262 213 213 213 213 201 201 201 201 329 329 329 63 63
 63 373 373 373 373 161 161 161 161 161 161 403 403 403 226 226 226 213 213 213
 213 201 201 201 201 201 202 202 202 202 206 206 206 206 206 206 161 161 161 161
 161 161 403 226 226 226 226 213 213 213 213 201 201 201 201 201 202 202 202 202
 206 206 206 206 148 148 148 161 161 388 140 140 140 226 226 226 226 213 213 213
 213 201 201 201 201 201 202 202 202 202 350 206 206 206 148 148 148 388 388 388
 388 140 140 53 53 226 226 213 213 213 213 201 201 201 201 201 234 234 234 350
 350 206 206 206 367 148 367 367 388 388 388 140 140 53 53 226 121 121 121 121
 279 279 279 279 158 234 234 234 234 350 350 206 206 206 367 367 367 367 388 388
 388 140 401 53 401 121 121 121 121 121 279 279 279 279 158 234 234 234 234 350
 350 206 206 367 367 367 367 367 367 388 275 401 401 401 401 401 121 121 121 121
 279 279 279 279 158 234 234 234 234 350 357 357 357 334 334 334 334 367 367 275
 358 401 401 401 401 363 363 363 121 121 121 279 279 158 158 356 234 234 234 190
 190 190 357 334 334 334 334 334 278 278 275 275 401 401 401 363 363 363 121 363
 146 146 146 219 356 356 356 190 190 190 190 190 357 334 334 334 278 278 278 278
 160 160 160 160 160 160 363 363 363 363 146 146 219 219 356 356 356 190 190 190
 190 190 252 252 252 334 278 278 278 278 160 160 160 160 160 160 160 363 363 363
 370 370 370 219 356 356 356 190 190 190 190 190 252 252 252 252 278 278 278 278
 160 160 160 160 160 160 160 363 363 363 370 370 370 219 356 356 381 381 190 190
 30 30 252 252 252 252 217 345 345 345 345 160 160 160 160 160 160 160 317 317
 317 317 317 317 317 381 381 381 381 381 30 30 30 30 252 73 345 345 345 345
 345 345 160 160 160 160 160 397 397 317 317 317 317 317 317 381 381 381 381 381
 30 30 30 30 73 345 345 345 345 345 345 345 345 160 160 160 397 397 397 397
 317 317 317 317 362 381 381 381 381 381 347 347 347 347 73 345 345 345 345 345
 345 345 345 160 160 397 397 397 397 397 397 317 317 317 51 51 51 381 381 347
 347 347 347 347 340 340 345 345 345 345 345 345 345 345 288 397 397 397 397 397
 37 37 37 37 51 51 51 51 347 347 347 347 347 347 347 340 345 345 345 345
 345 345 345 20 155 155 155 397 397 397 37 37 37 37 51 51 51 51 114 347