# vtk DataFile Version 2.0
Data set from IO Version 6.4.197.9a0dee2
ASCII

DATASET RECTILINEAR_GRID
DIMENSIONS 31 31 31
X_COORDINATES 31 float
-1.933334 1.933334 5.800001 9.666668 13.533335 17.400002 21.266668 25.133335 29.000002 32.866669 36.733337 40.600002 44.466671 48.333336 52.200005 56.066669 59.933338 63.800003 67.666672 71.533340 75.400009 
79.266670 83.133339 87.000008 90.866676 94.733345 98.600006 102.466675 106.333344 110.200012 114.066673 
Y_COORDINATES 31 float
-1.933334 1.933334 5.800001 9.666668 13.533335 17.400002 21.266668 25.133335 29.000002 32.866669 36.733337 40.600002 44.466671 48.333336 52.200005 56.066669 59.933338 63.800003 67.666672 71.533340 75.400009 
79.266670 83.133339 87.000008 90.866676 94.733345 98.600006 102.466675 106.333344 110.200012 114.066673 
Z_COORDINATES 31 float
-1.933334 1.933334 5.800001 9.666668 13.533335 17.400002 21.266668 25.133335 29.000002 32.866669 36.733337 40.600002 44.466671 48.333336 52.200005 56.066669 59.933338 63.800003 67.666672 71.533340 75.400009 
79.266670 83.133339 87.000008 90.866676 94.733345 98.600006 102.466675 106.333344 110.200012 114.066673 
CELL_DATA 27000
SCALARS FeatureIds int 1
LOOKUP_TABLE default
 370 370 370 366 366 366 366 366 153 153 153 349 349 349 349 349 241 241 241 241
 191 191 320 320 320 320 320 320 194 194 370 370 370 370 366 366 366 330 330 330
 330 330 349 349 349 241 241 241 241 241 191 191 320 320 320 320 194 194 194 194
 370 370 370 370 370 366 148 148 330 330 330 330 330 349 349 241 241 241 241 241
 191 191 320 320 320 194 194 194 194 194 312 84 370 370 370 148 148 148 330 330
 330 330 330 330 241 241 241 241 241 241 393 393 79 79 194 194 194 194 194 194
 312 84 84 84 84 84 148 148 330 330 330 330 330 214 214 214 367 367 367 367
 393 79 79 79 406 406 194 194 194 194 312 84 84 84 84 84 148 148 330 330
 330 330 214 214 214 214 367 367 367 367 79 79 79 79 406 406 406 194 194 312
 312 84 84 84 84 84 401 401 401 330 330 330 214 214 214 214 367 367 375 375
 79 79 79 79 79 271 406 194 231 312 231 231 84 84 84 401 401 401 401 330
 330 214 214 214 214 375 375 375 375 375 79 79 79 79 79 271 271 271 231 231
 236 236 161 69 69 401 401 401 401 401 330 214 214 214 214 375 375 375 375 375
 375 79 79 79 79 271 271 236 236 236 236 236 236 69 69 69 69 69 401 228
 228 228 214 128 128 128 375 375 375 375 375 60 60 60 60 60 100 100 236 236
 236 236 69 69 69 69 69 69 228 228 228 228 128 128 128 128 128 375 375 375
 120 60 60 60 60 60 100 100 100 236 380 380 69 69 69 69 69 69 228 228
 228 228 288 288 128 128 128 375 375 120 120 120 60 60 60 60 100 100 100 100
 380 380 69 69 69 69 69 69 228 228 228 288 288 288 288 128 199 199 199 120
 120 120 120 60 60 60 100 100 100 380 380 380 69 69 69 69 69 69 69 140
 140 288 288 288 288 288 199 199 199 120 120 120 120 120 60 60 100 380 380 380
 380 380 69 69 69 69 69 69 140 140 140 140 288 288 288 288 199 199 199 120
 120 120 120 120 120 60 100 380 380 380 380 380 69 69 69 69 69 140 140 140
 140 140 140 288 288 170 199 188 188 188 120 120 120 120 253 253 253 380 380 380
 85 85 85 69 69 69 69 140 140 140 140 140 140 288 170 170 170 188 188 188
 188 188 120 253 253 253 253 374 374 380 85 85 85 85 400 400 140 140 140 140
 140 140 124 124 170 170 170 188 188 188 188 188 127 253 253 253 253 374 374 374
 13 13 13 13 400 400 400 140 140 140 140 124 124 124 124 170 170 188 188 188
 188 188 127 127 253 253 253 374 374 13 13 13 13 13 400 400 400 400 301 301
 301 124 124 124 124 124 170 188 188 188 188 127 127 127 127 253 253 374 374 13
 13 13 13 344 400 400 400 400 62 62 62 124 124 124 124 71 71 71 188 188
 188 127 127 127 127 127 200 200 200 13 13 13 344 344 321 321 321 321 62 62
 62 62 124 124 71 71 71 71 117 117 117 99 99 127 316 316 316 200 200 210
 210 13 344 321 321 321 321 321 62 62 62 62 124 124 71 71 71 117 117 117
 117 99 99 316 316 316 316 112 112 210 210 210 321 321 321 321 321 321 62 62
 62 62 219 219 219 71 71 117 117 117 117 99 99 316 316 316 316 112 112 210
 210 210 321 321 321 321 321 321 321 62 62 219 219 219 219 219 219 117 117 117
 117 99 274 274 316 316 316 112 112 210 75 75 75 321 321 321 321 321 321 328
 219 219 219 219 219 219 219 117 117 117 117 99 274 274 274 316 405 179 179 179
 75 75 75 75 366 366 328 328 328 328 153 219 219 219 219 219 219 402 191 191
 191 191 274 274 274 179 179 179 179 179 75 75 75 366 366 366 328 328 328 153
 153 349 349 349 349 349 349 402 191 191 191 191 320 320 320 179 179 179 179 179
 75 75 75 366 366 366 366 328 153 153 153 349 349 349 349 349 349 402 191 191
 191 191 320 320 320 320 179 179 179 179 75 75 75 366 366 366 366 328 153 153
 153 349 349 349 349 349 241 241 241 191 191 191 320 320 320 320 179 179 179 179
 370 370 370 370 370 366 366 328 153 153 153 349 349 349 349 349 241 241 241 241
 191 191 320 320 320 320 149 149 149 149 370 370 370 370 370 370 148 148 330 330
 330 33 349 349 349 241 241 241 241 241 191 320 320 320 320 320 194 194 194 194
 370 370 370 370 370 370 148 148 148 330 330 330 349 349 349 241 241 241 241 241
 393 393 393 320 320 194 194 194 194 194 312 370 370 370 370 148 148 148 148 330
 330 330 330 214 241 241 241 241 241 241 393 393 393 393 320 194 194 194 194 194
 312 84 370 370 370 148 148 148 148 330 330 330 214 214 214 214 367 367 367 393
 393 393 393 79 406 406 194 194 194 312 312 161 161 84 84 84 148 148 148 330
 330 330 214 214 214 214 367 367 367 367 393 79 79 79 406 406 406 194 312 312
 312 161 161 161 84 401 401 401 401 330 330 214 214 214 214 214 367 367 367 367
 79 79 79 79 406 406 406 194 312 312 161 161 161 161 161 81 401 401 401 401
 214 214 214 214 214 214 375 375 375 375 79 79 79 79 79 271 271 236 236 236
 236 161 161 161 81 81 401 401 401 401 214 214 214 214 214 375 375 375 375 375
 375 79 79 79 79 271 271 236 236 236 236 236 161 81 81 81 81 401 401 401
 228 214 214 214 214 375 375 375 375 375 375 60 60 60 60 60 100 100 236 236
 236 236 236 69 69 69 69 69 228 228 228 228 214 128 128 375 375 375 375 375
 120 60 60 60 60 60 100 100 100 236 236 236 69 69 69 69 69 69 228 228
 228 228 288 288 128 128 375 375 375 120 120 120 60 60 60 60 100 100 100 100
 380 380 69 69 69 69 69 69 69 228 228 288 288 288 288 128 199 199 120 120
 120 120 120 60 60 60 100 100 100 100 380 380 69 69 69 69 69 69 69 140
 140 288 288 288 288 288 199 199 120 120 120 120 120 120 60 60 100 100 380 380
 380 380 69 69 69 69 69 69 140 140 140 140 288 288 288 170 114 114 120 120
 120 120 120 120 120 60 100 380 380 380 380 85 69 69 69 69 69 140 140 140
 140 140 140 288 170 170 114 114 188 188 120 120 120 120 253 253 253 253 380 380
 85 85 85 85 69 69 69 140 140 140 140 140 140 170 170 170 170 188 188 188
 188 188 120 253 253 253 253 253 314 314 85 85 85 85 85 400 140 140 140 140
 140 140 124 124 170 170 170 188 188 188 188 188 127 253 253 253 253 253 314 314
 85 85 85 85 400 400 400 140 140 140 140 124 124 124 124 170 170 188 188 188
 188 188 127 127 253 253 253 253 314 314 13 13 13 13 400 400 400 400 301 301
 301 124 124 124 124 124 170 188 188 188 188 127 127 127 127 253 253 253 200 314
 13 13 13 344 344 321 321 321 62 62 62 124 124 124 124 71 71 71 188 188
 188 127 127 127 127 127 200 200 200 210 210 210 344 344 344 321 321 321 62 62
 110 110 124 124 71 71 71 229 229 229 99 99 99 127 316 316 200 200 200 210
 210 210 344 344 321 321 321 321 62 62 110 110 110 110 71 71 71 229 229 229
 99 99 99 316 316 316 316 200 210 210 210 210 210 321 321 321 321 321 321 62
 110 110 110 219 71 71 71 229 229 117 99 99 99 316 316 316 316 316 210 210
 210 210 210 321 321 321 321 321 321 62 110 219 219 219 219 219 71 229 117 117
 208 99 99 316 316 316 405 316 210 210 210 210 321 321 321 321 321 321 321 328
 238 238 219 219 219 219 360 360 117 117 208 208 208 274 316 405 405 405 210 210
 75 75 75 321 321 321 328 328 328 328 238 238 238 219 219 349 360 360 191 191
 191 208 208 320 320 405 405 179 179 179 75 75 75 366 366 328 328 328 328 328
 153 238 349 349 349 349 349 191 191 191 191 191 320 320 320 320 179 179 179 179
 75 75 75 366 366 366 328 328 328 153 153 349 349 349 349 349 349 402 191 191
 191 191 320 320 320 320 179 179 179 179 75 370 370 370 366 366 328 328 328 153
 153 349 349 349 349 349 241 241 241 191 191 191 320 320 320 320 149 149 149 149
 370 370 370 370 370 370 370 328 153 33 33 33 349 349 349 349 241 241 241 241
 191 191 320 320 320 320 149 149 149 149 370 370 370 370 370 370 370 148 148 33
 33 33 33 349 349 241 241 241 241 241 393 393 320 320 320 320 194 194 149 149
 370 370 370 370 370 370 148 148 148 330 33 33 33 92 92 241 241 241 241 241
 393 393 393 393 320 194 194 194 194 194 370 370 370 370 370 370 148 148 148 330
 330 33 92 92 92 241 241 241 241 393 393 393 393 393 320 194 194 194 194 194
 312 370 370 370 370 370 148 148 148 330 330 214 214 214 214 214 367 367 367 393
 393 393 393 393 406 406 194 194 194 312 161 161 161 161 370 383 148 148 148 330
 330 214 214 214 214 214 367 367 367 393 393 393 393 393 406 406 406 194 312 312
 161 161 161 161 161 401 401 401 401 401 214 214 214 214 214 214 214 367 375 375
 361 361 361 79 406 406 406 194 312 312 161 161 161 161 81 81 401 401 401 401
 214 214 214 214 214 214 375 375 375 375 361 361 361 79 79 406 406 236 236 161
 161 161 161 161 81 81 81 401 401 401 214 214 214 214 214 214 375 375 375 375
 361 361 361 60 60 60 100 236 236 236 236 161 161 81 81 81 81 81 401 401
 214 214 214 214 214 375 375 375 375 375 375 60 60 60 60 60 100 100 236 236
 236 236 161 81 81 81 81 81 81 228 228 214 214 214 128 375 375 375 375 375
 120 60 60 60 60 60 100 100 100 236 236 236 69 69 69 69 69 69 69 228
 228 105 105 105 105 375 375 375 375 120 120 120 60 60 60 60 100 100 100 100
 380 380 69 69 69 69 69 69 69 228 228 105 105 105 105 105 375 375 120 120
 120 120 120 60 60 60 100 100 100 100 380 380 69 69 69 69 69 69 69 140
 140 105 105 105 105 105 114 114 120 120 120 120 120 120 60 60 100 100 100 100
 380 380 69 69 69 69 69 69 140 140 140 140 105 105 105 114 114 114 114 120
 120 120 120 120 120 60 100 100 380 380 314 85 85 69 69 69 69 140 140 140
 140 140 105 105 105 114 114 114 114 188 120 120 120 120 253 253 253 253 314 314
 314 85 85 335 335 69 258 140 140 140 140 140 124 170 170 170 114 114 188 188
 188 188 120 253 253 253 253 253 314 314 314 85 85 335 335 335 36 140 140 140
 140 140 124 124 170 170 170 188 188 188 188 188 127 127 253 253 253 253 314 314
 314 85 85 335 36 36 36 36 140 140 140 124 124 124 124 170 170 188 188 188
 188 188 127 127 253 253 253 253 314 314 314 13 13 36 36 36 36 36 301 110
 110 124 124 124 124 124 170 188 188 188 188 188 127 127 127 253 253 253 314 314
 210 13 344 344 36 36 36 36 62 110 110 110 124 124 124 71 71 71 188 188
 188 127 127 127 127 127 200 200 210 210 210 210 344 344 321 321 321 321 62 110
 110 110 110 124 71 71 71 229 229 229 99 99 99 275 316 316 316 200 210 210
 210 210 344 321 321 321 321 321 321 110 110 110 110 110 71 71 229 229 229 229
 99 99 99 99 316 316 316 210 210 210 210 210 210 321 321 321 321 321 321 110
 110 110 110 110 71 71 229 229 229 229 99 99 99 316 316 316 316 210 210 210
 210 210 210 321 321 321 321 321 321 110 110 110 110 110 219 71 229 229 229 208
 208 208 208 316 316 316 316 210 210 210 210 210 210 321 321 321 321 321 321 328
 238 238 238 219 219 360 360 360 360 208 208 208 208 208 316 316 405 405 210 210
 75 75 75 321 321 321 328 328 328 328 238 238 238 144 144 360 360 360 360 208
 208 208 208 208 316 405 405 405 210 210 75 75 75 75 366 328 328 328 328 328
 238 238 238 144 144 349 360 360 360 191 191 191 320 320 320 320 149 149 149 149
 75 75 75 370 370 328 328 328 328 328 238 238 349 349 349 349 360 360 191 191
 191 191 320 320 320 320 149 149 149 149 75 370 370 370 370 370 328 328 328 328
 238 349 349 349 349 349 241 241 241 191 191 191 320 320 320 320 149 149 149 149
 339 370 370 370 370 370 370 328 33 33 33 33 33 349 349 349 241 241 241 241
 191 320 320 320 320 149 149 149 149 149 370 370 370 370 370 370 370 148 33 33
 33 33 33 33 349 241 241 241 241 241 393 393 393 320 320 320 149 149 149 149
 370 370 370 370 370 370 370 148 148 33 33 33 33 92 92 234 234 241 241 393
 393 393 393 393 320 194 194 194 194 194 370 370 370 370 370 370 148 148 148 33
 33 33 92 92 92 234 234 234 241 393 393 393 393 393 393 194 194 194 194 194
 44 44 370 370 370 383 383 383 383 330 33 33 92 92 214 234 234 234 234 393
 393 393 393 393 406 194 194 194 194 312 161 44 44 44 370 383 383 383 383 383
 214 214 214 214 214 214 214 234 367 393 393 393 393 393 406 406 194 194 194 312
 161 161 161 161 161 383 383 383 383 383 383 214 214 214 214 214 214 367 375 393
 361 361 361 361 406 406 406 194 312 161 161 161 161 161 81 81 81 383 383 383
 214 214 214 214 214 214 214 375 375 375 361 361 361 361 79 406 406 194 161 161
 161 161 161 161 81 81 81 81 401 235 214 214 214 214 214 214 375 375 375 375
 361 361 361 60 60 60 100 236 236 161 161 161 161 81 81 81 81 81 81 235
 214 214 214 214 214 214 375 375 375 375 375 60 60 60 60 60 100 100 94 236
 236 161 161 81 81 81 81 81 81 81 59 59 59 59 66 66 375 375 375 375
 130 60 60 60 60 60 100 100 94 94 95 95 69 81 81 81 81 81 81 228
 59 59 59 59 66 66 66 375 130 130 130 120 60 60 60 60 100 100 100 100
 95 95 69 69 69 69 69 69 69 228 105 105 105 105 105 66 66 130 130 130
 120 120 120 60 60 60 100 100 100 95 95 95 69 69 69 69 69 69 69 105
 105 105 105 105 105 105 114 114 130 130 120 120 120 120 60 60 100 100 100 95
 95 95 335 258 258 258 258 258 258 140 105 105 105 105 105 114 114 114 114 120
 120 120 120 120 120 60 100 100 314 95 314 314 335 335 258 258 258 258 258 140
 24 24 24 105 105 114 114 114 114 114 120 120 120 120 253 253 253 314 314 314
 314 314 335 335 258 258 258 258 140 24 24 24 24 24 170 114 114 114 114 188
 188 188 120 253 253 253 253 314 314 314 314 314 335 335 335 258 258 258 140 24
 24 24 24 124 170 114 114 114 188 188 188 188 127 127 253 253 253 314 314 257
 314 314 335 335 335 36 36 36 24 24 24 24 24 124 124 170 170 49 49 49
 49 49 127 127 127 253 253 314 314 314 314 314 335 335 36 36 36 36 110 110
 110 110 124 124 124 124 49 49 49 49 49 49 275 127 127 253 253 314 314 314
 210 210 344 344 36 36 36 36 110 110 110 110 110 124 124 171 71 49 49 49
 49 275 275 275 275 275 275 210 210 210 210 210 65 321 321 321 321 321 110 110
 110 110 110 110 171 171 171 229 229 229 99 99 275 275 275 275 316 210 210 210
 210 210 65 321 321 321 321 321 110 110 110 110 110 110 110 171 229 229 229 229
 99 99 99 275 275 316 316 210 210 210 210 210 65 321 321 321 321 321 321 110
 110 110 110 110 110 394 229 229 229 229 208 99 99 275 316 316 316 210 210 210
 210 210 65 65 321 321 321 321 315 243 110 110 110 110 394 394 360 360 360 208
 208 208 208 208 316 316 316 210 210 210 210 65 65 65 321 321 321 321 321 238
 238 238 238 238 144 360 360 360 360 208 208 208 208 208 316 316 316 210 210 210
 210 65 65 65 321 321 328 328 328 238 238 238 238 144 144 360 360 360 360 208
 208 208 208 208 208 316 405 210 210 210 339 339 339 339 370 328 328 328 328 238
 238 238 238 144 144 360 360 360 360 360 208 208 208 320 320 149 149 149 149 149
 339 339 339 370 370 328 328 328 328 238 238 238 238 144 144 360 360 360 360 191
 191 191 320 320 320 149 149 149 149 149 339 339 370 370 370 370 328 328 328 238
 238 238 349 349 349 360 360 360 360 191 191 191 320 320 320 149 149 149 149 149
 339 339 370 370 370 370 370 302 407 33 33 33 33 33 349 360 360 360 360 40
 40 40 320 376 376 149 149 149 149 339 339 370 370 370 370 370 370 370 33 33
 33 33 33 33 234 234 234 234 234 241 40 40 40 320 93 93 93 149 149 339
 370 370 370 370 370 370 370 370 33 33 33 33 33 92 234 234 234 234 234 393
 393 393 393 393 93 93 93 93 93 339 44 44 370 370 370 370 383 383 383 310
 310 33 92 92 234 234 234 234 234 393 393 393 393 393 93 93 93 93 93 93
 44 44 44 370 370 383 383 383 383 310 310 310 214 92 234 234 234 234 234 393
 393 393 393 393 93 93 93 93 93 44 44 44 44 44 370 383 383 383 383 383
 310 214 214 214 214 214 234 234 125 125 393 393 393 393 93 93 93 93 93 44
 161 161 161 161 311 311 383 383 383 383 235 214 214 214 214 214 214 234 125 125
 361 361 361 361 93 93 93 93 299 299 161 161 161 161 311 311 311 383 383 235
 235 214 214 214 214 214 214 375 375 361 361 361 361 361 361 192 192 299 299 299
 161 161 161 161 81 81 81 81 235 235 235 214 214 214 214 214 214 375 375 247
 361 361 361 361 60 94 94 299 299 299 161 161 161 81 81 81 81 81 81 235
 59 59 59 59 59 66 66 375 247 247 247 361 60 60 60 94 94 94 94 94
 94 161 161 81 81 81 81 81 81 235 59 59 59 59 66 66 66 66 130 130
 130 130 60 60 60 60 94 94 94 94 95 95 173 81 81 81 81 81 81 255
 59 59 59 59 66 66 66 66 130 130 130 130 60 60 60 60 94 94 94 94
 95 95 95 69 69 69 69 69 69 133 133 105 105 105 66 66 66 130 130 130
 130 130 120 60 60 60 100 95 95 95 95 95 95 258 258 258 258 258 258 133
 133 105 105 105 105 66 66 130 130 130 130 120 120 120 60 60 95 95 95 95
 95 95 95 258 258 258 258 258 258 133 24 105 105 105 105 114 114 114 114 130
 130 120 120 120 120 60 95 95 95 95 95 309 335 335 258 258 258 258 258 24
 24 24 24 24 105 114 114 114 114 114 120 120 120 78 78 253 253 95 95 95
 314 335 335 335 258 258 258 258 258 24 24 24 24 24 24 114 114 114 114 114
 188 78 78 78 78 253 253 314 314 314 314 335 335 335 335 258 258 258 258 24
 24 24 24 24 24 334 114 49 49 49 49 49 78 78 78 78 253 314 314 314
 314 335 335 335 335 36 36 258 24 24 24 24 24 24 124 334 49 49 49 49
 49 49 78 78 78 253 253 314 314 314 314 335 335 335 335 36 36 36 24 24
 24 24 24 24 124 171 49 49 49 49 49 49 275 275 275 275 275 314 314 314
 210 210 335 335 36 36 36 36 110 110 110 110 110 110 171 171 171 49 49 49
 49 49 275 275 275 275 275 210 210 210 210 65 65 65 389 389 389 315 315 110
 110 110 110 110 171 171 171 49 49 49 49 275 275 275 275 275 275 210 210 210
 210 65 65 65 389 389 315 315 315 243 110 110 110 110 171 171 171 229 229 229
 99 275 275 275 275 275 210 210 210 210 210 65 65 65 65 315 315 315 315 243
 243 243 110 341 171 394 171 229 229 208 208 208 275 275 275 275 210 210 210 210
 65 65 65 65 65 315 315 315 315 243 243 243 243 394 394 394 360 360 360 208
 208 208 208 208 316 316 210 210 210 210 65 65 65 65 65 321 315 315 315 243
 238 238 238 394 394 394 360 360 360 208 208 208 208 208 208 107 107 210 210 210
 65 65 65 65 65 286 328 328 328 238 238 238 238 144 144 360 360 360 360 360
 208 208 208 208 107 107 107 107 210 65 339 339 339 339 339 286 328 328 328 238
 238 238 238 144 144 360 360 360 360 360 208 208 208 208 107 149 149 149 149 339
 339 339 339 339 370 370 328 328 328 238 238 238 238 144 360 360 360 360 360 360
 360 376 376 376 376 149 149 149 149 339 339 339 339 370 370 370 328 328 328 238
 238 238 238 349 360 360 360 360 360 360 360 191 376 376 376 149 149 149 149 339
 339 339 339 370 370 370 302 302 407 407 407 33 33 227 227 360 360 360 360 360
 40 40 40 376 376 376 149 149 149 339 339 339 370 370 370 370 302 302 302 33
 33 33 33 227 227 234 234 234 234 234 40 40 40 376 93 93 93 93 149 339
 339 370 370 370 370 370 370 302 310 310 310 33 33 227 234 234 234 234 234 393
 40 40 40 393 93 93 93 93 93 93 44 44 44 370 370 383 383 383 310 310
 310 310 310 227 234 234 234 234 234 125 393 393 393 393 93 93 93 93 93 93
 44 44 44 44 370 383 383 383 383 310 310 310 310 92 234 234 234 234 125 125
 125 393 393 393 93 93 93 93 93 44 44 44 44 44 44 383 383 383 383 310
 310 310 214 214 214 234 234 234 125 125 125 393 393 393 93 93 93 93 93 44
 44 44 44 44 311 311 383 383 383 235 235 82 214 214 214 214 234 234 125 125
 125 361 361 233 233 192 192 192 192 299 299 161 161 161 311 311 311 383 235 235
 235 82 214 214 214 214 377 377 377 377 361 361 361 233 233 192 192 192 299 299
 299 161 161 161 311 311 311 81 235 235 235 82 59 59 214 214 377 377 377 247
 247 361 361 233 233 192 192 192 299 299 94 161 161 81 81 81 81 81 235 235
 235 59 59 59 59 66 66 377 247 247 247 247 60 278 278 278 94 94 94 94
 94 173 173 81 81 81 81 81 235 255 59 59 59 59 66 66 66 145 145 145
 130 130 130 278 278 278 94 94 94 94 94 173 173 173 81 81 353 353 255 255
 255 59 59 66 66 66 66 66 145 130 130 130 130 278 278 278 34 94 94 94
 95 95 173 173 353 209 209 209 133 133 133 255 105 66 66 66 66 130 130 130
 130 130 120 278 278 278 34 95 95 95 95 95 95 258 209 209 209 209 133 133
 133 133 105 105 66 66 66 130 130 130 130 130 120 278 278 278 34 95 95 95
 95 309 309 258 258 258 209 209 133 133 133 133 105 105 105 66 114 114 130 130
 2 2 120 270 278 278 95 95 95 95 309 309 309 335 258 258 258 258 258 133
 24 24 24 24 24 114 114 114 114 114 2 2 270 270 270 270 95 95 95 95
 309 309 335 335 258 258 258 258 258 24 24 24 24 24 334 334 114 114 114 49
 49 78 78 78 78 78 78 314 314 314 314 335 335 335 335 258 258 258 258 24
 24 24 24 24 334 334 49 49 49 49 49 49 78 78 78 78 78 314 314 314
 314 335 335 335 335 335 258 258 24 24 24 24 24 24 24 334 49 49 49 49
 49 49 78 78 78 78 78 314 314 314 314 335 335 335 335 335 36 36 24 24
 24 24 24 24 171 171 49 49 49 49 49 49 275 275 275 275 275 225 314 314
 210 335 335 335 389 389 389 389 315 110 110 110 110 110 171 171 171 49 49 49
 49 49 275 275 275 275 225 225 225 210 65 65 65 65 389 389 389 315 315 110
 110 110 110 110 171 171 171 49 49 49 49 275 275 275 275 275 225 225 225 210
 65 65 65 65 389 389 315 315 315 243 243 341 341 341 171 171 171 372 372 372
 372 275 275 275 275 275 225 225 210 210 65 65 65 65 65 315 315 315 315 243
 243 243 341 341 394 394 394 372 372 372 372 275 275 275 275 275 210 210 210 65
 65 65 65 65 65 315 315 315 315 243 243 243 341 394 394 394 394 360 372 372
 372 208 208 275 275 275 210 210 210 65 65 65 65 65 65 315 315 315 315 243
 243 243 341 394 394 394 360 360 360 360 208 208 208 208 107 107 107 210 65 65
 65 65 65 65 65 286 286 315 315 243 238 238 394 394 394 394 360 360 360 360
 360 208 208 208 107 107 107 107 65 65 339 339 339 339 286 286 286 286 407 407
 238 238 238 394 360 360 360 360 360 360 360 208 208 376 107 107 107 107 149 339
 339 339 339 339 370 286 286 407 407 407 407 238 238 144 360 360 360 360 360 360
 360 376 376 376 376 149 149 149 149 339 339 339 339 339 370 370 286 407 407 407
 407 238 238 227 360 360 360 360 360 360 360 113 376 376 376 376 149 149 149 339
 339 339 339 339 370 302 302 302 407 407 407 407 227 227 227 227 360 360 237 237
 113 113 113 376 376 376 70 70 70 339 339 339 339 370 370 302 302 302 302 407
 407 227 227 227 227 234 234 234 237 237 40 40 40 376 93 93 70 70 70 339
 339 339 370 370 370 370 302 302 302 310 310 310 227 227 227 234 234 234 234 237
 237 40 40 40 93 93 93 93 93 93 44 44 44 370 370 43 383 383 310 310
 310 310 310 227 234 234 234 234 234 125 125 125 393 93 93 93 93 93 93 93
 44 44 44 44 44 383 383 383 383 310 310 310 310 227 234 234 234 234 125 125
 125 125 393 93 93 93 93 93 93 44 44 44 44 44 44 383 383 383 383 310
 310 310 82 82 234 234 234 234 125 125 125 125 233 233 93 93 93 93 192 44
 44 44 44 44 311 311 383 383 383 322 82 82 82 82 214 377 377 377 125 125
 125 125 233 233 233 192 192 192 192 299 299 44 44 44 311 311 311 383 322 235
 82 82 82 82 214 377 377 377 377 377 125 233 233 233 233 192 192 192 192 299
 299 161 161 161 311 311 311 383 235 235 82 82 82 82 214 377 377 377 377 377
 247 233 233 233 233 192 192 192 192 299 173 173 173 173 81 353 81 81 235 82
 82 82 59 59 59 66 377 377 145 247 247 247 233 278 278 278 192 94 94 94
 173 173 173 173 353 353 353 353 255 255 255 255 59 59 66 66 66 145 145 145
 145 145 278 278 278 278 34 34 94 94 173 173 173 173 353 353 353 353 255 255
 255 255 59 66 66 66 66 145 145 145 130 130 130 278 278 278 34 34 34 94
 173 173 173 173 353 353 353 353 255 255 255 255 255 66 66 66 66 2 2 2
 2 2 2 278 278 278 34 34 95 95 95 95 173 209 209 209 209 209 133 133
 133 133 133 66 66 66 66 2 2 2 2 2 270 278 278 278 34 95 95 95
 95 309 309 209 209 209 209 209 133 133 133 133 133 66 66 66 280 280 2 2
 2 2 270 270 270 270 95 95 95 95 95 309 335 335 258 209 209 209 209 133
 133 24 24 24 334 334 280 280 280 2 2 2 270 270 270 270 270 95 95 95
 190 335 335 335 335 258 258 258 209 24 24 24 24 24 334 334 334 280 280 2
 2 270 270 270 270 270 270 95 95 314 190 335 335 335 335 258 258 258 258 24
 24 24 24 24 334 334 334 49 49 49 49 49 78 78 78 78 78 47 314 314
 190 335 335 335 335 335 258 258 123 24 24 24 24 24 334 334 334 49 49 49
 49 49 78 78 78 78 47 47 47 47 190 190 335 335 335 335 335 123 123 123
 24 24 24 24 334 334 49 49 49 49 49 49 275 275 275 275 225 47 47 47
 65 190 335 335 389 389 315 123 123 123 123 110 110 171 171 171 171 49 49 49
 49 49 275 275 275 275 225 225 225 225 65 65 65 65 389 389 315 315 315 123
 341 341 341 341 171 171 171 49 49 49 49 275 275 275 275 275 225 225 225 225
 65 65 65 65 315 315 315 315 315 315 341 341 341 341 171 171 171 372 372 372
 372 275 275 275 275 275 225 225 225 65 65 65 65 65 65 315 315 315 315 243
 341 341 341 341 394 394 394 372 372 372 372 372 275 275 275 275 225 225 65 65
 65 65 65 65 65 315 315 315 315 243 341 341 341 394 394 394 394 394 372 372
 372 372 275 275 275 275 107 210 65 65 65 65 65 65 65 315 315 315 315 315
 341 341 341 394 394 394 394 360 360 372 372 372 208 275 107 107 107 107 65 65
 65 65 65 65 286 286 286 315 315 315 341 341 394 394 394 394 360 360 360 360
 360 357 208 107 107 107 107 107 65 65 339 339 339 339 286 286 286 407 407 407
 407 407 394 394 394 360 360 360 360 360 360 357 357 376 107 107 107 107 65 339
 339 339 339 339 286 286 286 407 407 407 407 407 407 394 360 360 360 360 360 360
 113 113 376 376 376 107 149 149 149 339 339 339 339 339 370 286 286 407 407 407
 407 407 227 227 360 360 360 360 360 360 113 113 113 376 376 376 70 70 70 339
 339 339 339 339 370 302 302 302 407 407 407 407 227 227 227 227 360 360 237 237
 113 113 113 376 376 70 70 70 70 70 339 205 205 205 43 302 302 302 302 407
 407 227 227 227 227 227 234 234 237 237 237 113 113 376 70 70 70 70 70 70
 205 205 205 43 43 43 302 302 302 310 310 310 227 227 227 234 234 234 237 237
 237 40 40 40 93 93 70 70 70 70 129 205 205 43 43 43 43 43 310 310
 310 310 310 227 227 234 234 234 234 125 125 125 233 93 93 93 93 93 93 93
 129 129 129 43 43 43 43 383 310 310 310 310 310 227 234 234 234 234 125 125
 125 125 233 233 93 93 93 93 93 129 129 129 129 129 268 43 383 383 310 310
 310 310 82 82 82 234 234 234 125 125 125 233 233 233 233 93 192 192 192 129
 129 129 129 129 268 268 268 383 322 322 82 82 82 82 214 377 377 377 377 125
 125 233 233 233 233 192 192 192 192 192 129 129 129 268 268 268 268 322 322 322
 82 82 82 82 214 377 377 377 377 377 125 233 233 233 233 192 192 192 192 192
 299 129 129 268 268 268 268 322 322 82 82 82 82 82 82 377 377 377 377 377
 377 233 233 233 233 192 192 192 192 192 173 173 173 173 353 353 353 322 322 82
 82 82 82 82 59 377 377 377 377 145 145 233 233 233 233 278 192 192 192 192
 173 173 173 173 353 353 353 353 255 255 255 255 59 59 66 66 377 377 145 145
 145 145 233 278 278 278 34 34 34 34 173 173 173 173 353 353 353 353 255 255
 255 255 255 66 66 66 66 145 145 145 2 2 278 278 278 278 34 34 34 34
 173 173 173 173 353 353 353 353 255 255 255 255 255 66 66 66 66 2 2 2
 2 2 2 278 278 278 34 34 34 34 173 173 173 173 209 209 209 209 133 133
 133 255 255 66 66 66 66 2 2 2 2 2 270 270 278 278 34 34 34 95
 190 190 190 209 209 209 209 209 133 133 133 133 133 334 334 280 280 280 2 2
 2 2 270 270 270 270 34 95 95 95 190 190 190 190 209 209 209 209 209 133
 133 172 24 334 334 334 280 280 280 2 2 270 270 270 270 270 270 95 95 95
 190 190 190 335 335 209 209 209 209 172 172 172 24 24 334 334 334 280 280 2
 2 270 270 270 270 270 270 190 190 190 190 190 190 335 335 335 258 258 172 172
 172 172 172 334 334 334 334 280 49 49 49 270 270 270 270 270 270 47 190 190
 190 190 190 335 335 335 335 123 123 123 172 24 24 24 334 334 334 49 49 49
 49 49 78 78 78 78 47 47 47 47 190 190 190 190 335 335 220 123 123 123
 123 24 24 334 334 334 334 49 49 49 49 49 275 275 275 275 225 47 47 47
 190 190 190 190 220 220 220 123 123 123 123 24 341 341 171 171 171 49 49 49
 49 49 275 275 275 225 225 225 225 225 65 65 65 65 220 220 315 315 315 123
 341 341 341 341 171 171 171 55 55 372 372 275 275 275 275 225 225 225 225 225
 65 65 65 65 220 315 315 315 315 315 341 341 341 341 394 394 394 372 372 372
 372 372 275 275 275 225 225 225 225 65 65 65 65 65 315 315 315 315 315 315
 341 341 341 341 394 394 394 372 372 181 372 372 275 275 275 275 225 225 65 65
 65 65 65 65 65 315 315 315 315 315 341 341 341 394 394 394 394 394 372 372
 372 372 275 275 275 107 225 225 65 65 65 65 65 65 65 315 315 315 315 315
 341 341 341 394 394 394 394 394 372 372 372 357 357 357 107 107 107 107 65 65
 65 65 65 65 286 286 286 315 315 315 341 378 394 394 394 394 394 360 360 360
 357 357 357 357 107 107 107 107 65 65 165 165 165 286 286 286 286 286 407 407
 407 378 394 394 394 394 360 360 360 360 357 357 357 357 107 107 107 107 65 339
 339 339 339 339 286 286 286 407 407 407 407 407 407 394 394 360 360 360 360 360
 113 113 113 357 376 107 107 70 339 339 339 339 339 339 286 286 302 407 407 407
 407 407 227 227 227 360 360 360 360 113 113 113 113 376 376 70 70 70 70 339
 205 205 205 205 205 302 302 302 407 407 407 407 227 227 227 227 360 237 237 237
 113 113 113 113 403 403 70 70 70 261 205 205 205 205 43 43 302 302 302 407
 407 227 227 227 227 227 234 234 237 237 237 113 113 403 403 403 70 70 70 70
 205 205 205 43 43 43 43 302 302 302 310 227 227 227 227 227 234 234 237 237
 237 237 256 403 403 403 70 70 70 205 205 205 205 43 43 43 43 43 43 310
 310 310 310 227 227 234 234 234 234 125 125 256 233 233 93 93 93 93 93 129
 129 129 129 43 43 43 43 43 310 310 310 310 336 336 336 234 80 80 80 125
 125 233 233 233 93 93 93 17 17 129 129 129 129 129 43 43 43 43 310 310
 310 310 336 336 336 336 80 80 80 125 125 233 233 233 233 233 17 17 17 129
 129 129 129 129 268 268 268 268 322 265 82 82 82 336 336 377 377 80 80 125
 233 233 233 233 233 233 192 192 192 129 129 129 129 268 268 268 268 268 322 322
 82 82 82 82 336 377 377 377 377 377 233 233 233 233 233 233 192 192 192 192
 129 129 129 268 268 268 268 268 322 82 82 82 82 82 82 377 377 377 377 377
 232 233 233 233 233 233 192 192 192 192 97 173 173 268 268 268 268 268 82 82
 82 82 82 82 377 377 377 377 377 232 232 232 233 233 233 233 192 192 192 192
 97 173 173 173 353 353 353 353 255 255 255 255 82 82 66 377 377 377 232 232
 232 232 64 64 233 278 34 34 34 97 173 173 173 173 353 353 353 353 255 255
 255 255 255 66 66 46 46 46 2 2 2 2 64 64 64 278 34 34 34 97