# vtk DataFile Version 2.0
Data set from IO Version 6.4.197.9a0dee2
ASCII

DATASET RECTILINEAR_GRID
DIMENSIONS 31 31 31
X_COORDINATES 31 float
-1.933334 1.933334 5.800001 9.666668 13.533335 17.400002 21.266668 25.133335 29.000002 32.866669 36.733337 40.600002 44.466671 48.333336 52.200005 56.066669 59.933338 63.800003 67.666672 71.533340 75.400009 
79.266670 83.133339 87.000008 90.866676 94.733345 98.600006 102.466675 106.333344 110.200012 114.066673 
Y_COORDINATES 31 float
-1.933334 1.933334 5.800001 9.666668 13.533335 17.400002 21.266668 25.133335 29.000002 32.866669 36.733337 40.600002 44.466671 48.333336 52.200005 56.066669 59.933338 63.800003 67.666672 71.533340 75.400009 
79.266670 83.133339 87.000008 90.866676 94.733345 98.600006 102.466675 106.333344 110.200012 114.066673 
Z_COORDINATES 31 float
-1.933334 1.933334 5.800001 9.666668 13.533335 17.400002 21.266668 25.133335 29.000002 32.866669 36.733337 40.600002 44.466671 48.333336 52.200005 56.066669 59.933338 63.800003 67.666672 71.533340 75.400009 
79.266670 83.133339 87.000008 90.866676 94.733345 98.600006 102.466675 106.333344 110.200012 114.066673 
CELL_DATA 27000
SCALARS FeatureIds int 1
LOOKUP_TABLE default
 360 360 387 387 387 387 158 158 158 158 393 393 393 393 393 275 275 275 275 275
 275 335 335 335 335 335 335 360 360 360 360 360 387 387 387 158 158 158 158 74
 74 123 123 123 123 209 209 209 209 209 209 335 335 335 335 335 335 360 360 360
 360 360 189 189 189 189 158 158 74 74 74 123 123 123 123 123 209 209 209 209
 297 297 335 335 335 335 360 360 360 360 360 360 189 189 189 189 158 74 74 74
 74 123 123 123 123 123 209 209 209 209 297 297 297 335 118 118 118 360 360 360
 210 210 189 189 189 189 42 42 74 74 74 123 123 123 123 123 209 209 301 301
 297 297 185 185 118 118 118 118 210 210 210 210 210 189 189 42 42 42 42 74
 74 123 135 135 135 119 119 119 301 301 185 185 185 118 118 118 118 118 210 210
 210 210 210 210 111 42 42 42 42 74 74 135 135 135 135 119 119 119 119 301
 185 185 185 118 118 118 118 210 210 210 210 210 210 111 111 111 111 111 42 74
 178 99 99 99 99 119 119 119 119 119 185 185 185 280 280 118 280 210 210 210
 210 210 210 111 111 111 111 111 111 178 178 99 99 99 99 99 119 119 119 119
 168 168 168 280 280 280 210 210 210 210 210 210 365 365 111 111 111 111 111 178
 178 99 99 99 99 99 119 119 119 119 168 168 168 193 193 193 193 210 210 210
 210 365 365 365 111 111 111 111 111 178 178 178 99 99 99 253 253 138 138 168
 168 168 168 193 193 193 193 193 210 210 210 365 365 365 365 111 111 111 111 178
 178 178 99 99 253 253 253 138 138 138 168 293 168 193 193 193 193 193 81 81
 81 365 365 365 365 365 111 111 333 333 333 333 333 333 253 253 253 138 138 293
 293 293 293 193 193 193 193 81 81 81 81 81 365 365 365 365 365 365 333 333
 333 333 333 333 253 253 253 138 138 293 293 293 293 193 193 193 193 81 81 81
 81 81 365 365 381 381 381 381 386 386 333 333 333 333 333 253 253 380 380 293
 293 293 154 154 193 193 193 81 81 81 81 81 321 381 381 381 381 386 386 386
 386 100 100 333 236 236 236 380 380 154 154 154 154 154 154 193 193 81 81 81
 81 321 321 321 321 381 153 153 386 386 100 100 100 236 236 236 236 380 380 288
 154 154 154 154 154 193 151 151 6 81 6 6 321 321 321 321 153 153 43 43
 43 100 100 236 236 236 236 380 288 288 288 154 154 154 154 328 328 6 6 6
 6 6 321 321 321 321 153 153 43 43 43 43 43 236 236 236 236 380 288 288
 288 288 106 106 328 328 328 6 6 6 6 6 321 321 321 321 43 43 43 43
 43 43 43 236 236 236 236 380 288 288 106 106 106 106 328 328 328 328 6 6
 6 6 6 70 70 260 260 260 43 43 43 43 43 236 236 7 7 7 121 121
 106 106 106 106 328 328 328 328 6 6 6 6 70 70 70 260 260 260 260 43
 43 43 43 7 7 7 7 7 121 121 121 106 106 106 328 328 328 328 328 6
 322 322 322 70 70 70 260 260 260 260 43 350 7 7 7 7 7 7 121 121
 106 106 106 106 328 328 328 328 328 328 322 322 322 70 70 70 260 260 260 350
 350 350 16 16 7 7 7 66 66 121 106 106 106 106 197 197 197 197 197 376
 376 322 70 70 70 70 70 260 350 350 350 350 16 16 16 7 66 66 66 389
 389 389 389 389 197 197 197 197 376 376 376 376 70 70 70 70 70 70 350 350
 350 350 16 16 16 7 66 66 389 389 389 389 389 389 197 197 197 197 376 376
 376 376 97 97 97 70 70 282 350 350 350 350 350 16 16 275 275 275 326 326
 389 389 389 389 32 32 32 376 376 376 376 97 97 97 97 70 282 282 350 350
 350 350 350 393 393 275 275 275 326 326 326 389 389 32 32 32 32 376 376 376
 383 97 97 97 97 70 282 282 350 350 350 350 393 393 393 275 275 275 275 326
 326 326 389 32 32 32 32 376 383 383 383 97 387 387 387 387 282 282 350 350
 350 350 393 393 393 275 275 275 275 275 326 326 335 335 32 32 32 383 383 383
 383 360 387 387 387 158 158 158 158 158 364 393 393 393 393 46 46 46 46 46
 34 34 34 335 335 116 116 383 383 383 360 360 387 387 158 158 158 158 158 158
 74 123 123 123 123 123 46 46 46 46 34 34 34 335 335 116 116 116 360 360
 360 360 189 189 189 158 158 158 158 74 74 123 123 123 123 123 46 46 46 297
 297 297 297 335 335 116 116 116 360 360 360 360 189 189 189 189 158 158 74 74
 74 123 123 123 123 123 209 46 46 297 297 297 297 297 118 116 116 116 116 360
 210 210 189 189 189 292 42 42 74 74 74 123 123 123 123 123 123 301 301 301
 297 297 297 297 118 118 118 118 210 210 210 210 210 189 292 292 42 42 42 74
 247 247 123 123 123 123 119 119 301 301 301 297 185 280 118 118 118 210 210 210
 210 210 210 210 111 111 42 42 42 74 247 247 99 99 99 119 119 119 301 301
 301 185 185 280 280 280 280 210 210 210 210 210 210 323 111 111 111 111 42 178
 178 99 99 99 99 99 119 119 119 221 168 168 168 280 280 280 280 210 210 210
 210 210 210 323 111 149 111 111 111 178 178 99 99 99 99 99 119 119 119 119
 168 168 168 280 280 280 280 210 210 210 210 210 365 365 149 149 149 111 111 178
 178 178 99 99 99 99 119 119 119 168 168 168 168 280 280 280 280 210 210 210
 210 365 365 365 365 149 111 111 178 178 178 178 99 99 99 99 355 355 355 355
 168 168 168 193 193 193 193 193 210 210 126 365 365 365 365 365 111 111 178 178
 178 178 99 99 99 253 355 355 355 355 293 293 293 193 193 193 193 193 81 81
 126 126 365 365 365 365 365 365 333 333 333 333 333 333 253 253 355 355 355 293
 293 293 293 193 193 193 193 81 81 81 126 126 365 365 365 365 365 365 333 333
 333 333 333 333 333 253 355 355 355 293 293 293 293 293 193 193 193 81 81 81
 126 126 126 365 381 381 381 381 386 386 333 333 333 333 333 236 236 236 288 293
 293 293 293 293 193 193 193 81 81 81 126 126 126 381 381 381 381 381 386 386
 386 333 333 333 236 236 236 236 288 288 288 154 154 154 154 193 151 151 151 151
 6 6 257 381 381 381 381 381 386 386 386 100 100 236 236 236 236 236 288 288
 288 288 154 154 154 151 151 151 151 151 6 6 257 257 257 381 153 43 43 43
 43 43 236 236 236 236 236 236 288 288 288 288 154 106 106 151 151 151 151 6
 6 6 257 257 321 321 43 43 43 43 43 43 43 236 236 236 236 288 288 288
 288 288 106 106 106 328 328 6 6 6 6 6 6 257 321 43 43 43 43 43
 43 43 43 236 236 236 236 288 288 288 106 106 106 106 106 328 328 328 6 6
 6 6 6 70 70 260 260 260 43 43 43 43 43 7 7 7 7 288 121 121
 106 106 106 106 328 328 328 328 6 6 6 6 6 70 70 260 260 260 260 43
 43 43 43 7 7 7 7 7 121 121 121 106 106 106 328 328 328 328 328 6
 322 322 322 70 70 260 260 260 260 260 43 350 7 7 7 7 7 7 121 121
 106 106 106 106 328 328 328 328 328 328 322 322 322 70 70 260 260 260 260 260
 350 350 16 16 7 7 7 7 106 106 106 106 106 106 197 197 197 328 328 376
 322 322 322 70 70 70 260 260 260 350 350 350 16 16 16 7 7 7 7 389
 389 389 389 389 197 197 197 197 376 376 376 376 70 70 70 70 70 350 350 350
 350 350 16 16 16 7 7 7 389 389 389 389 389 389 389 197 197 376 376 376
 376 376 97 97 97 97 70 350 350 350 350 350 350 16 16 16 275 275 326 389
 389 389 389 389 32 32 32 376 376 376 376 97 97 97 97 97 282 350 350 350
 350 350 350 16 16 275 275 275 326 326 326 389 389 389 32 32 32 376 376 376
 383 97 97 97 97 97 282 350 350 350 350 350 350 393 393 275 275 275 275 326
 326 389 389 32 32 32 32 383 383 383 383 97 97 97 97 97 158 158 350 350
 350 350 393 393 393 275 275 275 275 275 326 389 335 335 32 32 157 383 383 383
 383 383 29 29 29 158 158 158 158 364 364 364 393 393 393 46 46 46 46 46
 34 34 34 34 336 116 116 157 383 383 360 10 29 29 29 158 158 158 158 364
 364 123 123 123 123 46 46 46 46 46 34 34 34 34 116 116 116 116 116 360
 360 10 10 29 29 158 158 158 158 364 364 123 123 123 123 123 46 46 46 46
 297 34 34 34 116 116 116 116 116 360 210 10 10 29 29 292 158 158 74 364
 364 123 123 123 123 123 46 46 46 297 297 297 297 297 116 116 116 116 116 116
 210 210 210 292 292 292 292 279 279 74 247 247 123 123 123 123 123 46 301 301
 297 297 297 297 280 280 116 116 116 210 210 210 210 292 292 292 292 279 279 247
 247 247 247 123 123 123 221 221 221 301 301 297 297 280 280 280 280 280 210 210
 210 210 210 210 292 292 292 279 279 247 247 247 247 99 99 221 221 221 221 221
 221 185 280 280 280 280 280 210 210 210 210 210 210 323 323 111 111 279 279 247
 247 99 99 99 99 99 221 221 221 221 221 168 280 280 280 280 280 210 210 210
 210 210 323 323 323 149 111 111 111 178 178 99 99 99 99 99 221 221 221 221
 168 168 168 280 280 280 280 210 210 210 210 210 323 323 323 149 149 111 111 178
 178 178 99 99 99 99 355 355 355 355 168 168 168 280 280 280 280 210 210 210
 210 365 365 365 365 365 111 111 178 178 178 178 99 99 99 99 355 355 355 355
 168 168 168 280 280 280 280 210 210 210 126 126 365 365 365 365 365 365 178 178
 178 178 99 99 99 355 355 355 355 355 293 293 293 193 193 193 193 193 210 210
 126 126 126 365 365 365 365 365 333 333 333 333 333 333 99 355 355 355 355 355
 293 293 293 293 193 193 193 375 375 126 126 126 126 365 365 365 90 90 333 333
 333 333 333 333 131 355 355 355 355 355 293 293 293 293 193 193 193 375 375 126
 126 126 126 126 90 90 90 90 386 386 333 333 333 131 131 131 355 355 288 288
 293 293 293 293 133 133 133 375 375 126 126 126 126 126 90 90 90 381 386 386
 386 333 131 131 131 236 236 288 288 288 288 288 288 288 133 133 151 151 151 151
 126 257 257 257 257 381 90 90 386 386 386 333 131 236 236 236 236 288 288 288
 288 288 288 288 133 151 151 151 151 151 6 6 257 257 257 257 90 43 43 43
 43 43 236 236 236 236 236 288 288 288 288 288 288 288 288 151 151 151 151 151
 6 6 257 257 257 257 43 43 43 43 43 43 236 236 236 236 236 288 288 288
 288 288 106 106 106 328 328 151 6 6 6 6 257 257 257 257 43 43 43 43
 43 43 43 236 236 236 236 288 288 288 106 106 106 106 106 328 328 328 6 6
 6 6 6 70 70 260 260 260 43 43 43 43 43 7 7 7 7 7 106 106
 106 106 106 106 106 328 328 328 6 6 6 6 322 70 70 260 260 260 260 43
 43 43 43 7 7 7 7 7 121 121 106 106 106 106 106 328 328 328 328 6
 322 322 322 70 70 260 260 260 260 260 43 43 7 7 7 7 7 7 106 106
 106 106 106 106 106 328 328 328 328 328 322 322 322 70 70 260 260 260 260 260
 350 350 16 7 7 7 7 7 106 106 106 106 106 106 106 328 328 328 328 376
 322 322 322 70 70 260 260 260 260 350 350 350 16 16 7 7 7 7 106 106
 389 389 389 106 106 197 197 197 376 376 376 376 97 97 346 346 346 2 350 350
 350 350 16 16 16 7 7 327 327 389 389 389 389 389 389 197 197 376 376 376
 318 376 97 97 97 346 346 350 350 350 350 350 350 16 16 7 327 327 327 327
 389 389 389 389 389 32 32 376 318 318 318 97 97 97 97 97 97 350 350 350
 350 350 350 16 16 327 327 327 327 327 327 389 389 336 336 336 15 318 318 318
 383 97 97 97 97 97 97 350 350 350 350 350 350 393 393 275 327 327 327 327
 327 336 336 336 336 336 157 157 383 383 383 97 97 97 97 97 158 158 350 350
 350 350 350 393 393 46 46 46 46 327 327 34 336 336 336 157 157 157 383 383
 10 10 29 29 29 29 29 364 364 364 364 364 364 330 330 46 46 46 46 46
 34 34 34 336 336 116 15 157 15 15 10 10 29 29 29 29 29 364 364 364
 364 364 123 123 330 46 46 46 46 46 34 34 34 34 116 116 116 116 116 10
 10 10 10 29 29 29 29 364 364 364 364 364 123 123 123 46 46 46 46 46
 34 34 34 34 116 116 116 116 116 10 10 10 10 29 29 29 292 364 364 364
 364 247 123 123 123 123 46 46 46 46 297 297 297 34 116 116 116 116 116 10
 10 10 10 292 292 292 292 279 279 247 247 247 247 123 123 241 241 221 221 221
 297 297 297 280 280 280 116 116 116 10 210 210 10 292 292 292 292 279 279 247
 247 247 247 247 123 241 241 221 221 221 221 297 280 280 280 280 280 280 210 210
 210 210 210 292 292 292 279 279 279 247 247 247 247 247 99 241 221 221 221 221
 221 314 280 280 280 280 280 280 210 210 210 210 323 323 177 292 279 279 279 247
 247 247 99 99 99 99 221 140 221 221 221 314 280 280 280 280 280 280 210 210
 210 210 323 323 323 323 323 279 134 134 178 99 99 99 99 99 221 221 221 221
 314 314 314 280 280 280 280 280 210 210 210 323 323 323 323 323 323 111 134 134
 178 178 99 99 99 99 355 355 355 314 314 314 314 280 280 280 280 280 210 210
 210 323 323 323 323 323 323 124 124 134 178 178 99 99 99 355 355 355 355 355
 314 314 314 314 280 280 280 280 210 210 126 126 365 365 365 365 365 124 124 124
 178 178 99 99 99 355 355 355 355 355 314 314 314 314 280 280 280 375 375 126
 126 126 126 365 365 365 365 124 124 333 333 333 333 99 355 355 355 355 355 355
 293 293 293 293 193 193 375 375 375 126 126 126 126 126 365 90 90 124 124 333
 333 333 333 131 131 355 355 355 355 355 293 293 293 293 133 133 375 375 375 375
 126 126 126 126 90 90 90 90 386 386 333 131 131 131 131 131 355 288 288 288
 288 293 293 293 133 133 133 375 375 375 126 126 126 126 90 90 90 90 386 386
 131 131 131 131 131 131 236 288 288 288 288 288 288 133 133 133 133 151 151 151
 101 257 257 257 257 90 90 90 386 386 131 131 131 131 131 236 236 288 288 288
 288 288 288 288 133 133 151 151 151 151 101 257 257 257 257 257 90 43 43 43
 43 131 57 57 236 236 236 288 288 288 288 288 288 288 133 133 151 151 151 151
 6 6 257 257 257 257 257 43 43 43 43 57 57 57 57 236 288 288 288 288
 288 288 106 106 106 328 151 151 151 6 6 6 257 257 257 257 257 43 43 43
 43 43 57 57 57 236 288 288 288 288 106 106 106 106 106 328 328 6 6 6
 6 6 6 369 369 260 260 260 43 43 43 43 57 57 7 7 7 7 106 106
 106 106 106 106 106 328 328 328 6 6 6 6 369 369 369 260 260 260 260 43
 43 43 325 325 7 7 7 7 106 106 106 106 106 106 106 328 328 328 328 6
 322 322 322 369 70 260 260 260 260 260 43 325 325 325 7 7 7 7 106 106
 106 106 106 106 106 328 328 328 328 6 322 322 322 70 70 260 260 260 260 260
 350 350 325 325 7 7 7 7 106 106 106 106 106 106 106 328 328 328 309 309
 322 322 322 70 346 346 2 2 2 350 350 350 350 325 325 325 7 325 106 106
 106 106 106 106 106 4 309 309 309 309 318 318 173 97 346 346 346 2 2 350
 350 350 350 16 325 325 325 327 327 327 389 389 389 389 4 4 4 309 309 309
 318 318 173 173 346 346 2 2 2 350 350 350 350 16 325 327 327 327 327 327
 389 389 389 336 336 4 309 309 318 318 318 318 173 173 173 97 2 2 350 350
 350 350 350 16 327 327 327 327 327 327 327 336 336 336 336 336 15 15 318 318
 318 302 302 173 302 302 2 2 350 350 350 350 350 350 327 327 327 327 327 327
 327 336 336 336 336 336 15 157 15 318 383 302 302 302 302 302 302 364 364 364
 364 350 350 350 46 46 46 327 327 327 327 34 336 336 336 336 157 157 157 15
 10 10 10 29 29 29 29 364 364 364 364 364 364 330 330 330 46 46 46 46
 34 34 336 336 336 336 15 15 15 15 10 10 10 29 29 29 29 364 364 364
 364 364 364 330 330 330 46 46 46 46 34 34 34 336 336 116 116 116 116 10
 10 10 10 29 29 29 29 364 364 364 364 364 364 330 330 330 46 46 46 46
 34 34 34 34 116 116 116 116 116 10 10 10 10 10 29 29 29 364 364 364
 364 364 364 123 330 330 46 46 46 46 270 297 297 34 116 116 116 116 116 10
 10 10 10 10 232 232 232 279 364 364 247 247 247 123 241 241 241 46 221 270
 270 270 297 280 280 280 116 116 116 10 10 10 10 177 232 232 232 279 279 247
 247 247 247 247 241 241 241 221 221 221 270 270 280 280 280 280 280 280 210 10
 210 210 177 177 177 232 232 279 279 247 247 247 247 241 241 241 241 221 221 221
 221 314 280 280 280 280 280 280 210 210 210 210 177 177 177 232 232 279 279 134
 247 247 247 99 241 241 140 140 221 221 314 314 314 280 280 280 280 280 210 210
 210 210 323 323 177 232 232 134 134 134 134 134 99 99 24 24 24 221 221 221
 314 314 314 280 280 280 280 280 210 210 342 323 323 323 323 323 323 134 134 134
 134 134 99 99 24 24 24 355 355 314 314 314 314 314 280 280 280 280 210 342
 342 323 323 323 323 323 124 124 124 134 134 134 99 99 24 24 355 355 355 314
 314 314 314 314 280 280 280 280 342 342 126 126 126 323 323 365 124 124 124 124
 124 124 99 215 215 355 355 355 355 355 314 314 314 314 357 357 357 375 375 375
 126 126 126 126 365 365 124 124 124 124 124 124 215 215 215 215 355 355 355 355
 314 314 314 314 357 357 375 375 375 375 126 126 126 126 126 90 124 124 124 124
 124 131 131 131 215 215 355 355 355 355 293 293 293 133 133 133 133 375 375 375
 126 126 126 126 90 90 90 124 124 124 124 131 131 131 131 131 355 355 288 288
 288 293 265 133 133 133 133 375 375 375 101 126 126 126 90 90 90 124 124 124
 131 131 131 131 131 131 288 288 288 288 288 288 265 133 133 133 133 151 101 101
 101 101 257 257 257 90 90 90 124 124 131 131 131 131 131 131 288 288 288 288
 288 288 288 133 133 133 133 151 101 101 101 101 257 257 257 257 90 90 98 98
 98 57 57 57 131 131 288 288 288 288 288 288 288 288 133 133 133 101 101 101
 101 101 257 257 257 257 257 98 98 98 98 57 57 57 57 236 288 288 288 288
 288 288 106 106 348 348 348 101 101 101 101 101 257 369 257 257 230 98 98 98
 98 57 57 57 57 57 288 288 288 288 106 106 106 106 348 348 348 101 101 101
 64 6 369 369 369 369 230 98 98 98 98 57 57 57 325 325 325 325 106 106
 106 106 106 106 348 348 348 328 6 6 64 64 369 369 369 369 260 260 98 98
 98 325 325 325 325 325 325 325 106 106 106 106 106 106 106 348 328 328 64 64
 64 369 369 369 369 260 260 260 260 260 49 325 325 325 325 325 325 325 106 106
 106 106 106 106 106 328 328 328 309 64 64 369 369 369 369 2 2 2 2 2
 49 325 325 325 325 325 325 325 325 106 106 106 106 106 106 4 309 309 309 309
 205 205 205 369 346 2 2 2 2 2 350 350 325 325 325 325 325 325 325 106
 106 106 106 106 4 4 4 309 309 309 318 205 302 302 346 346 2 2 2 2
 350 350 350 325 325 325 325 327 327 327 106 106 106 4 4 4 4 309 309 309
 318 302 302 302 302 2 2 2 2 2 350 350 350 325 325 327 327 327 327 327
 327 389 336 336 4 4 4 309 309 318 318 302 302 302 302 302 2 2 2 350
 350 350 350 325 325 327 327 327 327 327 327 336 336 336 336 336 15 15 15 318
 318 302 302 302 302 302 2 364 364 364 350 350 350 181 327 327 327 327 327 327
 327 336 336 336 336 336 15 15 15 318 318 302 302 302 302 302 302 364 364 364
 364 364 364 181 330 330 327 327 327 327 327 336 336 336 336 336 15 15 15 15
 155 10 302 302 29 29 364 364 364 364 364 364 364 181 330 330 330 46 327 46
 34 336 336 336 336 336 15 15 15 15 10 10 10 29 29 29 364 364 364 364
 364 364 364 330 330 330 330 46 46 46 34 34 336 336 336 116 15 15 15 10
 10 10 10 10 29 29 364 364 364 364 364 364 364 330 330 330 330 46 46 46
 34 34 34 336 336 116 116 116 116 10 10 10 10 10 232 232 364 364 364 364
 364 364 364 330 330 330 330 46 270 270 270 270 270 336 116 116 287 287 287 10
 10 10 10 10 232 232 232 364 364 364 364 364 247 241 241 241 241 270 270 270
 270 270 270 343 343 280 287 287 287 10 10 10 10 177 232 232 232 232 279 364
 247 247 247 241 241 241 241 270 270 270 270 270 343 343 343 280 280 280 93 10
 10 10 177 177 177 232 232 232 232 134 134 247 247 241 241 241 241 270 270 270
 270 314 343 343 343 280 280 280 93 10 342 177 177 177 177 232 232 232 134 134
 134 134 247 241 241 241 241 221 221 270 314 314 314 343 343 280 280 280 210 342
 342 342 177 177 177 232 232 134 134 134 134 134 134 24 24 24 24 221 221 314
 314 314 314 343 280 280 280 280 342 342 342 342 323 323 323 323 3 134 134 134
 134 134 134 24 24 24 24 355 355 314 314 314 314 314 280 280 280 280 342 342
 342 342 323 323 323 323 124 124 124 134 134 134 215 215 24 24 24 355 355 314
 314 314 314 314 357 357 357 357 342 342 126 126 126 187 323 124 124 124 124 124
 124 124 215 215 215 215 355 355 355 263 314 314 314 357 357 357 357 357 342 342
 126 126 126 126 187 124 124 124 124 124 124 124 215 215 215 215 215 355 355 263
 263 314 314 357 357 357 357 357 375 375 371 126 126 126 126 124 124 124 124 124
 124 124 131 215 215 215 215 355 355 263 265 265 265 133 133 133 133 375 375 375
 371 371 126 126 90 124 124 124 124 124 124 131 131 131 131 131 215 215 288 288
 265 265 265 133 133 133 133 133 375 375 101 371 126 126 90 90 124 124 124 124
 131 131 131 131 131 131 131 288 288 288 265 265 265 133 133 133 133 133 101 101
 101 101 257 257 257 90 90 124 124 124 131 131 131 131 131 131 131 288 288 288
 288 265 265 265 133 133 133 101 101 101 101 101 257 257 257 257 105 105 98 98
 131 131 131 131 131 131 288 288 288 288 288 288 265 265 133 133 133 101 101 101
 101 101 257 257 257 257 105 98 98 98 98 57 57 57 57 131 288 288 288 288
 288 288 106 106 348 348 348 101 101 101 101 101 369 369 369 369 230 98 98 98
 98 57 57 57 57 57 325 288 288 288 106 106 106 106 348 348 348 101 101 101
 64 64 369 369 369 369 230 230 98 98 98 98 57 57 325 325 325 325 106 106
 106 106 106 106 348 348 348 348 64 64 64 64 369 369 369 369 230 230 230 98
 98 325 325 325 325 325 325 325 106 106 106 106 106 106 106 348 348 64 64 64
 64 64 369 369 369 369 230 230 230 230 49 49 325 325 325 325 325 325 325 106
 106 106 106 106 175 175 175 64 64 64 64 64 369 369 369 2 2 2 2 2
 49 49 325 325 325 325 325 325 325 106 106 106 106 106 175 175 175 309 309 64
 205 205 205 369 65 2 2 2 2 2 49 49 325 325 325 325 325 325 325 106
 106 106 106 106 4 4 4 309 309 309 205 205 205 302 65 2 2 2 2 2
 2 49 325 325 325 325 325 327 327 327 367 367 367 4 4 4 4 309 309 309
 205 205 302 302 302 2 2 2 2 2 2 350 350 325 325 325 327 327 327 356
 367 367 367 336 4 4 4 309 309 309 205 302 302 302 302 302 2 2 2 2
 350 350 181 181 325 327 327 327 327 356 356 336 336 336 336 336 15 15 15 15
 318 302 302 302 302 302 2 364 364 364 364 364 181 181 181 327 327 327 327 327
 356 336 336 336 336 336 15 15 15 15 302 302 302 302 302 302 302 364 364 364
 364 364 181 181 330 330 327 327 327 327 336 336 336 336 336 336 15 15 15 15
 155 155 155 302 302 29 364 364 364 364 364 364 181 181 181 330 330 102 102 102
 34 336 336 336 336 336 15 15 15 15 155 155 155 10 29 29 364 364 364 364
 364 364 181 181 330 330 330 102 102 102 34 336 336 336 336 15 15 15 15 155
 155 10 10 10 10 29 364 364 364 364 364 364 364 330 330 330 330 102 102 270
 270 34 336 336 336 116 116 116 116 10 10 10 10 10 10 232 364 364 364 364
 364 364 364 330 330 330 330 270 270 270 270 270 270 336 343 116 287 287 287 10
 10 10 10 10 232 232 232 364 364 364 364 37 37 241 241 241 241 270 270 270
 270 270 270 343 343 343 287 287 93 93 93 10 10 10 232 232 232 232 364 37
 37 37 37 241 241 241 241 270 270 270 270 270 343 343 343 343 343 93 93 93
 93 10 177 177 177 232 232 232 134 134 134 37 37 241 241 241 241 270 270 270
 270 270 343 343 343 343 343 93 93 93 342 177 177 177 177 232 232 134 134 134
 134 134 134 241 241 241 241 270 270 270 314 314 343 343 343 343 343 280 342 342
 342 342 177 177 177 177 3 3 134 134 134 134 134 24 24 24 24 270 270 314
 314 314 314 343 343 343 343 342 342 342 342 342 323 323 323 3 3 3 3 134
 134 134 134 24 24 24 24 263 263 314 314 314 314 343 343 357 357 342 342 342
 342 342 187 187 187 187 124 124 124 134 134 134 215 215 24 24 24 263 263 263
 314 314 314 357 357 357 357 357 342 342 371 371 187 187 187 124 124 124 124 124
 124 124 215 215 215 215 215 263 263 263 263 314 314 357 357 357 357 357 342 342
 371 371 371 187 187 124 124 124 124 124 124 124 215 215 215 215 215 263 263 263
 263 263 314 357 357 357 357 357 375 371 371 371 371 371 187 124 124 124 124 124
 124 124 215 215 215 215 215 263 263 263 265 265 265 357 357 357 357 357 375 371
 371 371 371 371 371 124 124 124 124 124 124 131 131 131 131 215 215 215 263 265
 265 265 265 265 133 133 133 133 375 371 101 371 371 371 278 124 124 124 124 124
 124 131 131 131 131 131 131 73 73 73 265 265 265 265 133 133 133 133 101 101
 101 101 278 278 278 278 105 105 105 124 124 131 131 131 131 131 131 73 73 73
 265 265 265 265 133 133 133 101 101 101 101 101 278 278 278 278 105 105 105 105
 131 131 131 131 131 131 131 73 73 73 73 265 265 265 133 133 133 101 101 101
 101 101 278 278 278 278 105 105 98 98 98 57 57 57 57 131 131 288 288 288
 288 288 106 265 348 348 348 101 101 101 64 64 278 369 278 230 230 230 98 98
 98 98 57 57 57 325 325 288 288 288 106 106 106 106 348 348 348 101 64 64
 64 64 369 369 369 230 230 230 230 98 98 98 57 325 325 325 325 325 106 106
 106 106 106 106 348 348 348 64 64 64 64 64 369 369 369 369 230 230 230 230
 98 49 325 325 325 325 325 325 106 106 106 106 106 106 175 175 175 64 64 64
 64 64 369 369 369 369 230 230 230 49 49 49 325 325 325 325 325 325 325 106
 106 106 106 175 175 175 175 64 64 64 64 205 205 369 65 65 2 2 2 49
 49 49 325 325 325 325 325 325 325 106 367 367 106 175 175 175 175 175 64 64
 205 205 205 65 65 65 2 2 2 49 49 49 325 325 325 325 325 325 325 367
 367 367 367 367 175 175 175 309 309 64 205 205 205 302 65 65 2 2 2 2
 49 49 325 325 325 325 325 325 327 367 367 367 367 367 4 4 4 309 309 205
 205 205 205 302 302 65 2 2 2 2 49 49 181 325 325 325 327 327 327 327
 367 367 367 367 4 4 4 309 309 309 205 302 302 302 302 302 2 2 2 2
 364 181 181 181 181 327 327 327 327 356 356 367 336 336 336 336 15 15 15 15
 205 302 302 302 302 302 2 364 364 364 364 181 181 181 181 327 327 327 327 327
 356 336 336 336 336 336 15 15 15 15 155 302 302 302 302 302 302 364 364 364
 364 364 181 181 181 181 327 327 327 327 336 336 336 336 336 336 15 15 15 15
 155 155 155 302 302 223 223 223 364 364 364 364 181 181 181 181 102 102 102 102
 38 38 336 336 336 15 15 15 15 155 155 155 155 155 29 223 223 223 364 364
 364 364 181 181 181 330 102 102 102 102 38 38 38 336 336 15 15 15 15 155
 155 155 155 10 334 334 334 364 364 364 364 364 364 181 330 330 102 102 102 102
 38 38 38 38 336 299 116 116 15 155 155 10 10 10 334 334 334 364 364 364
 364 37 37 37 392 392 392 102 270 270 270 38 38 38 343 343 287 287 287 10
 93 10 10 10 232 232 232 364 364 37 37 37 37 37 392 392 392 270 270 270
 270 270 270 343 343 343 343 93 93 93 93 10 10 85 85 232 232 232 37 37
 37 37 37 37 392 392 392 270 270 270 270 270 343 343 343 343 343 93 93 93
 93 10 85 85 85 232 232 316 37 37 37 37 37 37 392 392 392 270 270 270
 270 270 343 343 343 343 343 343 93 93 342 342 177 177 177 232 316 316 134 134
 134 37 37 37 392 392 392 270 270 270 270 314 343 343 343 343 343 343 342 342
 342 342 227 227 227 3 3 3 3 134 134 134 170 170 392 24 24 270 270 314
 314 314 343 343 343 343 343 342 342 342 342 342 227 227 227 227 3 3 3 134
 134 134 170 170 24 24 24 263 263 263 314 314 314 343 343 357 357 342 342 342
 342 342 187 187 187 187 3 3 124 134 134 134 170 215 215 24 24 263 263 263
 263 314 314 357 357 357 357 357 342 342 371 371 187 187 187 187 124 124 124 124
 124 124 215 215 215 215 215 263 263 263 263 263 314 357 357 357 357 357 342 342
 371 371 371 187 187 124 124 124 124 124 124 124 215 215 215 215 215 263 263 263
 263 263 167 357 357 357 357 357 342 371 371 371 371 371 187 124 124 124 124 124
 124 124 215 215 215 215 215 263 263 263 265 265 265 167 357 357 357 357 357 371
 371 371 371 371 371 124 124 124 124 124 124 124 131 131 215 215 215 120 263 265
 265 265 265 265 357 357 357 357 371 371 312 371 371 371 278 124 124 124 124 124
 124 131 131 131 131 131 131 73 73 265 265 265 265 265 133 133 133 133 101 312
 312 312 278 278 278 278 105 105 105 285 285 131 131 131 131 131 131 73 73 73
 265 265 265 265 274 274 133 101 101 101 101 101 278 278 278 278 105 105 105 285
 285 131 131 131 131 131 131 73 73 73 265 265 265 265 274 274 274 101 101 101
 101 101 278 278 278 278 105 105 285 285 285 285 131 131 131 131 143 288 288 288
 288 265 265 265 274 274 274 101 101 101 64 64 278 278 278 230 230 230 98 98
 98 67 67 57 57 325 325 107 107 107 107 106 106 106 348 348 348 64 64 64
 64 64 369 369 369 230 230 230 230 98 98 67 67 325 325 325 325 325 107 106
 106 106 106 106 348 348 240 64 64 64 64 64 369 369 369 230 230 230 230 230
 230 49 325 325 325 325 325 325 325 106 106 106 106 175 175 175 240 64 64 64
 64 64 369 369 369 230 230 230 230 49 49 49 325 325 325 325 325 325 325 106
 106 106 106 175 175 175 175 64 64 64 64 205 205 65 65 65 65 2 49 49
 49 49 49 325 325 325 325 325 325 367 367 367 367 175 175 175 175 175 64 64
 205 205 205 65 65 65 65 2 2 49 49 49 49 325 325 325 325 325 325 367
 367 367 367 367 175 175 175 175 64 64 205 205 205 65 65 65 65 2 2 49
 49 49 49 325 325 325 325 325 327 367 367 367 367 367 175 175 175 175 309 205
 205 205 205 302 65 65 65 2 2 2 96 96 96 96 325 325 36 36 36 367
 367 367 367 367 4 4 4 15 309 205 205 205 302 302 302 65 65 2 2 96
 96 96 181 181 181 181 36 36 36 36 367 367 367 336 336 336 15 15 15 15
 205 302 302 302 302 302 223 223 364 364 96 96 181 181 181 181 36 36 36 36
 367 336 336 336 336 336 15 15 15 15 155 155 302 302 302 223 223 223 364 364
 364 181 181 181 181 181 102 102 102 102 336 336 336 336 336 336 15 15 15 15
 155 155 155 155 302 223 223 223 223 364 364 181 181 181 181 102 102 102 102 102
 38 38 38 104 104 104 15 15 163 163 155 155 155 155 155 223 223 223 223 364
 364 364 181 181 181 102 102 102 102 102 38 38 38 38 104 299 15 15 163 155
 155 155 155 155 334 334 334 334 364 364 364 37 37 37 392 102 102 102 102 102
 38 38 38 38 299 299 299 299 155 155 155 155 155 85 334 334 334 334 364 37
 37 37 37 37 392 392 392 102 102 270 38 38 38 38 299 299 299 299 93 155
 93 85 85 85 85 334 334 334 37 37 37 37 37 37 392 392 392 392 270 270
 270 270 270 343 299 299 299 93 93 93 93 85 85 85 85 85 334 316 37 37
 37 37 37 37 392 392 392 270 270 270 270 270 270 343 343 343 343 93 93 93
 93 85 85 85 85 85 316 316 316 37 37 37 37 37 392 392 392 270 270 270
 270 270 343 343 343 343 343 343 93 93 342 85 85 85 227 227 316 316 316 134
 37 37 37 37 392 392 392 392 270 270 270 270 343 343 343 343 343 343 342 342
 342 342 227 227 227 227 316 316 316 134 170 170 170 170 392 392 392 392 270 314
 314 314 217 343 343 343 343 342 342 342 342 342 227 227 227 227 3 3 3 134
 170 170 170 170 392 24 24 263 263 263 263 217 217 217 217 357 357 342 342 342
 342 342 227 227 227 227 3 3 124 124 170 170 170 170 215 24 263 263 263 263
 263 263 217 217 357 357 357 357 342 342 371 371 187 187 187 187 124 124 124 124
 124 124 170 215 215 215 215 263 263 263 263 263 167 357 357 357 357 357 342 342
 371 371 371 187 187 124 124 124 124 124 124 124 30 30 215 215 215 263 263 263
 263 263 167 167 357 357 357 357 342 371 371 371 371 371 187 124 124 124 124 124