# vtk DataFile Version 2.0
Data set from IO Version 6.4.197.9a0dee2
ASCII

DATASET RECTILINEAR_GRID
DIMENSIONS 31 31 31
X_COORDINATES 31 float
-1.933334 1.933334 5.800001 9.666668 13.533335 17.400002 21.266668 25.133335 29.000002 32.866669 36.733337 40.600002 44.466671 48.333336 52.200005 56.066669 59.933338 63.800003 67.666672 71.533340 75.400009 
79.266670 83.133339 87.000008 90.866676 94.733345 98.600006 102.466675 106.333344 110.200012 114.066673 
Y_COORDINATES 31 float
-1.933334 1.933334 5.800001 9.666668 13.533335 17.400002 21.266668 25.133335 29.000002 32.866669 36.733337 40.600002 44.466671 48.333336 52.200005 56.066669 59.933338 63.800003 67.666672 71.533340 75.400009 
79.266670 83.133339 87.000008 90.866676 94.733345 98.600006 102.466675 106.333344 110.200012 114.066673 
Z_COORDINATES 31 float
-1.933334 1.933334 5.800001 9.666668 13.533335 17.400002 21.266668 25.133335 29.000002 32.866669 36.733337 40.600002 44.466671 48.333336 52.200005 56.066669 59.933338 63.800003 67.666672 71.533340 75.400009 
79.266670 83.133339 87.000008 90.866676 94.733345 98.600006 102.466675 106.333344 110.200012 114.066673 
CELL_DATA 27000
SCALARS FeatureIds int 1
LOOKUP_TABLE default
 6 6 188 188 188 228 228 135 215 215 215 215 215 153 153 153 153 194 194 194
 109 109 109 109 311 311 311 311 6 6 6 6 188 188 188 135 135 135 215 215
 215 215 215 153 153 153 153 194 194 194 194 194 334 334 311 311 311 311 6 6
 6 6 154 154 154 228 228 135 215 215 215 215 215 153 153 153 194 194 194 194
 194 194 334 334 311 311 311 311 6 6 355 355 154 154 154 228 228 215 215 215
 215 215 399 399 399 153 194 194 194 194 194 194 334 334 311 311 345 345 355 355
 355 355 154 154 154 154 21 191 191 191 191 399 399 399 399 399 194 194 194 194
 194 334 334 334 334 345 345 345 355 355 355 154 154 154 154 154 21 21 191 191
 191 399 399 399 399 399 373 194 194 194 194 334 334 334 334 345 345 345 355 355
 355 154 154 154 154 21 21 21 21 191 191 399 399 399 399 399 373 116 116 48
 48 48 48 48 345 345 345 345 355 355 178 178 83 83 83 21 21 21 21 21
 191 399 399 399 399 399 116 116 116 48 48 48 48 48 48 345 345 345 178 178
 178 95 95 95 95 21 21 21 21 21 333 333 339 339 339 339 116 116 116 48
 48 48 48 48 48 68 345 178 178 178 178 95 95 95 95 95 29 29 29 29
 333 333 333 339 339 339 234 234 234 234 48 48 48 203 203 68 68 68 222 222
 238 95 95 95 95 29 29 29 29 29 333 333 339 339 339 339 234 234 234 234
 234 48 203 203 203 68 68 68 238 238 238 238 98 98 114 114 29 29 29 29
 290 290 339 339 339 234 234 234 234 234 234 48 203 203 367 367 68 68 238 238
 238 98 98 98 114 114 114 29 290 290 290 290 290 339 105 90 90 90 234 49
 49 49 49 367 367 367 367 367 238 238 238 98 98 98 114 114 114 114 290 290
 290 290 290 105 105 105 90 90 49 49 49 49 129 367 367 367 367 367 378 378
 364 364 98 98 114 114 114 114 290 290 290 290 290 105 105 105 105 90 49 49
 49 49 129 367 367 367 367 378 378 378 364 364 364 98 114 114 114 224 290 290
 290 3 3 105 105 105 105 105 346 49 49 49 129 129 367 367 378 378 378 378
 364 364 223 223 223 114 224 224 224 3 3 3 3 105 105 105 105 105 346 346
 346 346 129 189 189 367 378 378 378 378 364 364 223 223 223 224 224 224 224 3
 3 3 3 3 105 105 105 346 346 346 346 346 189 189 189 189 378 378 378 378
 198 223 223 223 223 223 224 224 224 3 3 3 3 3 259 259 259 346 346 346
 346 346 189 189 189 189 378 198 198 198 198 198 223 223 223 278 224 224 224 3
 3 3 3 3 259 259 259 137 346 346 346 346 75 75 75 75 198 198 198 198
 198 198 209 209 209 278 157 157 157 157 3 329 211 211 259 259 259 137 346 346
 346 75 75 75 75 75 75 198 198 198 284 198 209 209 209 278 157 157 157 26
 26 329 329 211 211 84 259 137 346 346 75 75 75 75 75 75 75 55 55 198
 55 55 209 209 209 157 157 157 26 26 26 329 329 329 329 329 329 298 298 298
 75 75 75 75 75 164 164 55 55 55 55 55 55 209 209 157 157 26 26 26
 26 329 329 329 329 329 329 298 298 298 298 53 75 75 164 164 164 55 55 55
 55 55 188 188 188 188 157 26 26 26 26 329 329 329 329 329 329 298 298 298
 298 53 53 53 164 164 164 55 55 55 40 188 188 188 188 188 188 26 26 26
 26 329 329 329 121 121 121 298 298 298 298 53 53 53 32 32 32 40 40 40
 40 188 188 188 188 188 188 188 26 115 115 115 115 121 121 121 121 121 298 298
 298 53 53 32 32 32 32 40 40 40 40 188 188 188 188 188 188 188 115 115
 115 115 115 121 121 121 121 121 298 298 148 148 148 32 32 32 32 40 40 40
 40 188 188 188 188 188 188 188 115 115 115 115 115 121 121 121 121 121 298 109
 109 109 109 109 32 32 32 40 40 40 6 6 188 188 188 188 188 228 215 215
 215 215 115 121 121 121 121 121 121 109 109 109 109 109 32 32 32 40 6 6
 6 6 188 188 228 228 228 228 228 215 215 215 215 153 153 153 153 194 194 109
 109 109 109 109 311 311 311 311 6 6 6 6 6 188 228 228 228 228 228 215
 215 215 215 153 153 153 194 194 194 194 194 109 334 334 311 311 311 311 6 6
 6 6 154 154 228 228 228 228 228 215 215 215 215 153 153 153 194 194 194 194
 194 334 334 334 311 311 311 311 6 6 355 154 154 154 154 228 228 228 191 191
 191 215 399 399 399 153 194 194 194 194 194 334 334 334 334 311 311 345 355 355
 355 154 154 154 154 154 228 191 191 191 191 191 399 399 399 399 149 194 194 194
 194 334 334 334 334 237 237 355 355 355 355 154 154 154 154 154 21 21 191 191
 191 191 399 399 399 399 149 149 149 194 194 334 334 334 237 237 237 355 355 355
 355 154 154 154 154 21 21 21 21 191 191 191 399 399 399 399 116 116 116 48
 48 48 48 48 237 237 237 355 355 355 355 154 154 154 154 21 21 21 21 21
 191 339 339 339 339 339 116 116 116 48 48 48 48 48 237 237 237 355 355 355
 178 95 95 95 95 21 21 21 21 21 333 333 339 339 339 339 116 116 116 48
 48 48 48 48 48 68 68 68 178 178 238 95 95 95 95 21 21 21 21 21
 333 333 333 339 339 339 339 234 234 48 48 48 48 48 68 68 68 68 238 238
 238 238 95 95 95 29 29 29 29 29 333 333 339 339 339 339 234 234 234 234
 48 48 48 48 68 68 68 68 238 238 238 238 98 98 98 114 29 29 29 29
 290 339 339 339 339 339 234 234 234 158 158 158 48 203 68 68 68 68 238 238
 238 98 98 98 98 114 114 29 29 290 290 290 339 339 339 339 90 90 90 158
 49 49 129 367 367 367 367 367 238 238 238 98 98 98 98 114 114 114 290 290
 290 290 105 105 105 105 90 90 90 49 49 129 129 129 367 367 367 367 238 238
 364 364 98 98 98 114 114 114 290 290 290 290 105 105 105 105 105 90 90 49
 49 129 129 129 129 367 367 378 378 364 364 364 364 98 98 114 224 224 290 290
 3 3 3 105 105 105 105 105 105 49 129 129 129 129 129 129 129 378 378 364
 364 364 364 364 223 224 224 224 224 3 3 3 3 105 105 105 105 105 346 346
 346 129 129 129 129 129 129 378 378 378 364 364 223 223 223 224 224 224 224 3
 3 3 3 3 105 105 105 105 346 346 346 129 129 129 129 129 129 378 378 198
 198 364 223 223 223 224 224 224 224 3 3 3 3 3 259 259 259 346 346 346
 346 346 189 189 189 189 129 198 198 198 198 198 198 209 209 157 157 157 157 3
 3 3 3 3 259 259 259 137 346 346 346 75 75 75 75 75 75 198 198 198
 198 198 209 209 209 209 157 157 157 157 329 329 329 329 259 259 259 259 346 346
 75 75 75 75 75 75 75 198 198 198 198 198 209 209 209 209 157 157 157 157
 329 329 329 329 329 259 259 259 298 75 75 75 75 75 75 75 75 55 55 198
 55 55 209 209 209 209 157 157 157 26 329 329 329 329 329 329 329 298 298 298
 75 75 75 75 75 75 164 55 55 55 55 55 209 209 209 209 157 157 26 26
 329 329 329 329 329 329 341 298 298 298 298 75 75 75 75 75 164 55 55 55
 55 55 188 188 188 60 60 26 26 26 329 329 329 329 329 329 341 298 298 298
 298 298 75 75 75 75 164 55 55 55 40 40 188 188 188 60 60 60 26 26
 329 329 329 356 356 356 341 298 298 298 298 298 53 53 32 32 32 40 40 40
 40 40 188 188 188 188 188 188 26 115 115 115 115 356 356 356 121 298 298 298
 298 298 53 32 32 32 32 40 40 40 40 40 188 188 188 188 188 188 115 115
 115 115 115 356 356 121 121 121 298 298 298 109 109 109 32 32 32 40 40 40
 40 40 188 188 188 188 188 228 228 115 115 115 115 121 121 121 121 121 298 109
 109 109 109 109 32 32 32 40 40 40 6 6 188 188 188 188 228 228 228 215
 215 115 115 121 121 121 121 121 109 109 109 109 109 109 311 311 32 40 40 6
 6 6 6 228 228 228 228 228 228 228 228 66 66 66 153 153 231 231 194 25
 25 109 109 109 311 311 311 311 6 6 6 6 6 228 228 228 228 228 228 228
 66 66 66 66 153 153 194 194 194 194 109 109 334 334 311 311 311 311 6 6
 6 6 154 228 228 228 228 228 228 228 66 66 66 66 153 153 194 194 194 194
 334 334 334 334 311 311 311 311 6 6 355 154 154 154 154 228 228 228 228 191
 191 66 399 399 399 149 149 194 194 194 334 334 334 334 334 237 237 237 355 355
 355 154 154 154 154 154 228 228 191 191 191 191 399 399 399 149 149 149 149 194
 334 334 334 334 237 237 237 237 355 355 355 154 154 154 154 154 21 21 191 191
 191 191 399 399 399 149 149 149 149 149 334 334 334 334 237 237 237 237 355 355
 355 154 154 154 154 21 21 21 21 191 191 339 339 339 339 149 149 149 149 149
 48 48 48 237 237 237 237 237 355 355 355 355 154 154 154 21 21 21 21 21
 191 339 339 339 339 339 116 116 116 48 48 48 48 48 237 237 237 237 355 355
 355 355 95 95 21 21 21 21 21 21 339 339 339 339 339 339 116 116 116 48
 48 48 48 48 237 237 237 237 355 355 238 95 95 95 95 21 21 21 21 21
 333 333 339 339 339 339 339 116 158 158 48 48 48 48 68 68 68 68 238 238
 238 238 98 95 98 21 29 29 29 29 339 339 339 339 339 339 339 158 158 158
 158 48 48 48 68 68 68 68 238 238 238 238 98 98 98 98 29 29 29 29
 339 339 339 339 339 339 339 158 158 158 158 158 158 129 68 68 68 68 238 238
 238 98 98 98 98 98 114 29 240 240 240 240 339 339 339 339 90 90 158 158
 158 158 129 129 129 129 367 238 238 238 238 98 98 98 98 98 236 236 240 240
 240 240 339 105 105 105 90 90 90 158 158 129 129 129 129 129 129 238 238 238
 364 364 98 98 98 98 236 236 236 240 240 240 105 105 105 105 105 90 90 49
 129 129 129 129 129 129 129 129 364 364 364 364 364 98 98 236 236 236 236 236
 3 3 3 105 105 105 105 105 105 129 129 129 129 129 129 129 129 129 364 364
 364 364 364 364 236 236 236 224 224 3 3 3 3 105 105 105 105 105 346 346
 129 129 129 129 129 129 129 129 277 364 364 364 364 223 223 224 224 224 224 3
 3 3 3 3 105 105 105 105 346 346 129 129 129 129 129 129 129 129 277 277
 198 364 364 209 209 224 224 224 224 3 3 3 3 3 259 259 259 259 346 346
 129 129 129 129 129 129 129 198 198 198 198 198 209 209 209 209 157 157 157 3
 3 3 3 259 259 259 259 259 220 220 220 75 75 75 75 75 75 198 198 198
 198 198 209 209 209 209 157 157 157 157 3 329 329 329 259 259 259 259 220 220
 75 75 75 75 75 75 75 198 198 198 198 198 209 209 209 110 157 157 157 157
 329 329 329 329 329 259 259 259 220 75 75 75 75 75 75 75 75 55 55 198
 55 55 209 209 209 209 157 157 157 338 329 329 329 329 329 329 329 341 298 75
 75 75 75 75 75 75 75 55 55 55 55 55 209 209 209 60 60 157 157 338
 329 329 329 329 329 329 341 341 298 298 298 75 75 75 75 75 75 55 55 55
 55 85 85 60 60 60 60 60 26 26 329 329 329 329 329 356 341 341 298 298
 298 298 75 75 75 75 391 55 55 55 40 40 188 60 60 60 60 60 60 377
 329 329 329 356 356 356 341 341 298 298 298 298 53 75 391 391 391 40 40 40
 40 40 188 188 60 60 60 60 60 115 115 115 115 356 356 356 341 341 298 298
 298 298 53 391 391 391 391 40 40 40 40 40 188 188 188 188 188 228 115 115
 115 115 115 356 356 356 341 341 298 298 298 25 109 109 391 391 391 40 40 40
 40 40 188 188 188 188 228 228 228 115 115 115 115 356 356 356 121 341 298 25
 25 109 109 109 391 391 391 40 40 40 6 6 188 188 188 228 228 228 228 228
 38 38 38 38 356 121 121 250 25 25 25 109 109 109 311 311 391 40 40 6
 6 6 22 228 228 228 228 228 228 228 66 66 66 66 153 231 231 231 231 25
 25 25 25 25 205 205 205 205 6 6 6 6 6 228 228 228 228 228 228 228
 66 66 66 66 231 231 231 231 231 25 25 25 25 334 205 205 205 205 6 6
 6 6 154 228 228 228 228 228 228 228 66 66 66 66 153 231 231 231 231 194
 334 334 334 334 334 205 205 205 332 332 355 154 154 154 228 228 228 228 228 228
 191 66 66 111 149 149 149 149 194 194 334 334 334 334 334 237 237 237 355 332
 355 154 154 154 154 228 228 228 228 191 191 191 111 111 111 149 149 149 149 149
 334 334 334 334 237 237 237 237 355 355 355 154 154 154 154 206 206 21 191 191
 191 191 111 111 111 149 149 149 149 149 334 334 334 237 237 237 237 237 355 355
 355 162 154 154 154 206 21 21 21 191 191 339 339 339 339 149 149 149 149 149
 48 48 334 237 237 237 237 237 355 355 355 162 162 154 21 21 21 21 21 21
 339 339 339 339 339 339 149 149 149 149 48 48 48 48 237 237 237 237 355 355
 355 162 162 95 21 21 21 21 21 21 339 339 339 339 339 339 339 116 116 48
 48 48 48 48 237 237 237 237 355 355 78 78 78 95 21 21 21 21 21 339
 339 339 339 339 339 339 339 158 158 158 158 48 48 48 68 68 68 68 238 238
 78 78 78 78 44 44 21 29 29 339 339 339 339 339 339 339 339 158 158 158
 158 158 158 158 68 68 68 68 238 238 78 78 98 98 98 44 44 29 240 240
 240 339 339 339 339 339 339 158 158 158 158 158 158 129 129 68 68 68 238 238
 146 98 98 98 98 98 44 240 240 240 240 240 339 339 339 339 339 158 158 158
 158 158 129 129 129 129 129 146 146 146 146 98 98 98 98 98 236 236 240 240
 240 240 339 105 105 105 208 208 208 158 158 129 129 129 129 129 129 146 146 146
 364 364 98 98 98 236 236 236 236 240 240 240 105 105 105 105 208 208 208 208
 129 129 129 129 129 129 129 129 146 146 364 364 364 98 236 236 236 236 236 236
 3 3 3 105 105 105 208 208 208 208 129 129 129 129 129 129 129 129 277 277
 277 364 364 364 236 236 236 236 236 236 3 3 3 92 105 105 208 208 208 208
 129 129 129 129 129 129 129 277 277 277 277 364 364 296 296 236 236 236 236 3
 3 3 3 3 105 105 208 208 220 220 129 129 129 129 129 129 129 277 277 277
 277 277 277 209 209 224 224 292 292 292 3 3 3 92 259 259 259 220 220 220
 220 129 129 129 129 129 129 277 277 277 277 277 209 209 209 110 110 157 292 292
 292 3 3 259 259 259 259 220 220 220 220 220 75 75 75 75 75 277 277 277
 85 85 209 209 209 110 110 157 380 292 292 292 329 329 130 130 130 220 220 220
 220 75 75 75 75 75 75 267 198 198 85 85 209 209 209 110 110 380 380 380
 380 329 329 329 130 130 130 130 220 220 75 75 75 75 75 75 75 267 55 85
 85 85 85 209 209 110 110 380 380 380 338 338 329 329 329 130 130 130 341 75
 75 75 75 75 75 75 75 55 55 85 85 85 85 85 209 60 60 380 380 338
 338 338 338 329 329 329 341 341 341 298 298 75 75 75 75 75 391 55 55 55
 85 85 85 85 60 60 60 60 380 338 338 338 338 329 356 341 341 341 341 298
 298 298 75 75 391 391 391 391 55 85 85 85 85 60 60 60 60 60 380 377
 377 377 377 356 356 356 341 341 341 298 298 298 75 391 391 391 391 391 40 40
 40 85 85 60 60 60 60 60 377 377 377 377 377 356 356 356 341 341 341 298
 298 298 391 391 391 391 391 391 40 40 40 40 188 60 60 60 60 60 228 377
 377 115 115 356 356 356 341 341 341 298 25 25 25 391 391 391 391 391 40 40
 40 40 188 188 188 228 228 228 228 228 167 38 167 167 356 356 250 250 250 25
 25 25 25 25 391 391 391 391 40 40 6 6 22 188 228 228 228 228 228 228
 38 38 38 38 356 250 250 250 250 25 25 25 25 25 391 391 391 391 40 40
 6 22 22 22 22 228 228 228 228 228 167 167 167 167 167 231 231 231 231 25
 25 25 25 25 205 205 205 205 205 6 332 22 22 22 228 228 228 228 228 228
 66 66 66 167 231 231 231 231 231 25 25 25 25 205 205 205 205 205 205 332
 332 332 22 22 228 228 228 228 228 228 66 66 66 111 111 231 231 231 231 194
 334 334 334 334 205 205 205 205 332 332 332 332 154 154 228 228 228 228 228 228
 66 66 111 111 111 149 149 149 149 149 334 334 334 334 237 237 237 237 332 332
 332 332 154 154 206 206 206 228 228 228 119 111 111 111 111 149 149 149 149 149
 334 334 334 334 237 237 237 237 332 332 355 162 154 154 206 206 206 21 191 119
 119 111 111 111 111 149 149 149 149 149 334 334 334 237 237 237 237 237 355 332
 162 162 162 206 206 206 206 21 21 119 119 119 111 111 111 149 149 149 149 149
 149 48 334 237 237 237 237 237 355 355 162 162 162 162 206 206 206 44 119 119
 119 339 339 339 339 339 149 149 149 149 48 48 48 237 237 237 237 237 82 392
 162 162 162 392 44 44 44 44 44 119 119 339 339 339 339 339 339 149 149 368
 368 368 368 368 237 237 237 237 82 392 78 78 78 78 44 44 44 44 44 119
 339 339 339 339 339 339 339 339 158 158 368 368 368 368 237 68 68 68 319 146
 78 78 78 78 44 44 44 44 44 339 339 339 339 339 339 339 339 158 158 158
 158 368 368 368 368 68 68 68 146 146 78 78 78 78 44 44 44 44 44 240
 240 339 339 339 339 339 339 158 158 158 158 158 368 129 129 129 129 146 146 146
 146 78 78 98 44 44 44 240 240 240 240 240 339 339 339 339 208 208 158 158
 158 158 129 129 129 129 129 146 146 146 146 146 98 98 98 98 240 240 240 240
 240 240 339 92 92 208 208 208 208 158 158 129 129 129 129 129 129 146 146 146
 146 146 98 98 296 296 236 236 236 240 240 240 92 92 92 208 208 208 208 208
 129 129 129 129 129 129 129 146 146 146 277 277 277 296 296 296 236 236 236 236
 240 92 92 92 92 208 208 208 208 208 129 129 129 129 129 129 129 277 277 277
 277 277 277 296 296 296 236 236 236 236 3 92 92 92 92 92 208 208 208 208
 129 129 129 129 129 129 129 277 277 277 277 277 277 296 296 296 236 236 292 292
 292 92 92 92 92 92 208 208 220 220 220 129 129 129 129 129 129 277 277 277
 277 277 277 296 296 296 292 292 292 292 292 292 92 92 92 57 57 220 220 220
 220 220 129 129 129 129 277 277 277 277 277 277 277 209 110 110 292 292 292 292
 292 292 92 92 57 57 57 220 220 220 220 220 75 402 75 75 267 277 277 277
 85 85 85 85 110 110 380 380 380 292 292 292 292 130 130 130 130 220 220 220
 220 220 402 402 402 75 267 267 267 85 85 85 85 85 110 110 380 380 380 380
 380 338 338 130 130 130 130 130 220 220 220 75 402 402 402 75 267 267 267 85
 85 85 85 85 209 110 380 380 380 380 338 338 338 338 130 130 130 130 220 220
 220 75 75 402 75 75 267 267 267 85 85 85 85 85 85 60 380 380 380 380
 338 338 338 338 130 130 341 341 341 341 298 75 75 75 75 391 391 391 85 85
 85 85 85 85 60 60 60 380 380 380 338 338 338 338 338 341 341 341 341 341
 298 298 75 75 391 391 391 391 85 85 85 85 85 85 60 60 60 60 377 377
 377 377 377 377 356 341 341 341 341 341 298 298 391 391 391 391 391 391 391 85
 85 85 85 60 60 60 60 60 377 377 377 377 377 377 356 356 341 341 341 341
 298 25 391 391 391 391 391 391 391 190 190 22 22 22 60 60 60 60 377 377
 377 377 377 377 356 356 341 341 341 341 25 25 25 391 391 391 391 391 391 190
 190 22 22 22 22 22 228 228 228 167 167 167 167 167 167 250 250 250 250 25
 25 25 25 25 391 391 391 391 391 190 22 22 22 22 22 228 228 228 228 167
 167 167 167 167 167 250 250 250 250 25 25 25 25 25 391 391 391 391 391 40
 22 22 22 22 22 22 228 228 228 167 167 167 167 167 167 250 250 250 250 25
 25 25 25 205 205 205 205 205 205 332 22 22 22 22 22 228 228 228 228 228
 167 167 167 167 167 231 231 231 231 25 25 25 25 205 205 205 205 205 332 332
 332 332 22 22 22 228 228 228 228 228 66 66 167 167 111 231 231 231 231 239
 239 334 334 205 205 205 205 205 332 332 332 332 332 22 228 228 228 228 228 228
 228 185 111 111 111 111 149 149 239 239 239 334 334 394 205 205 205 332 332 332
 332 332 332 206 206 206 206 206 228 228 119 111 111 111 111 111 149 149 149 239
 239 334 334 394 237 237 82 82 332 332 392 392 392 206 206 206 206 206 119 119
 119 119 111 111 111 111 149 149 149 149 239 357 357 357 237 237 82 82 82 332
 392 162 392 206 206 206 206 44 119 119 119 119 111 111 111 111 149 149 149 149
 357 357 357 357 237 237 82 82 82 392 162 162 162 392 206 44 44 44 119 119
 119 119 119 339 339 339 149 149 149 149 357 357 357 357 237 237 82 82 82 392
 392 162 392 392 44 44 44 44 44 119 119 119 339 339 339 339 339 149 149 368
 368 368 368 357 47 47 47 82 82 392 78 78 392 392 44 44 44 44 44 119
 119 119 339 339 339 339 339 339 158 158 368 368 368 368 47 47 47 47 319 319
 78 78 78 44 44 44 44 44 44 119 119 339 339 339 339 339 339 158 158 158
 368 368 368 368 163 163 47 146 146 146 78 78 78 78 44 44 44 44 44 44
 119 339 339 339 339 339 339 158 158 158 158 368 368 368 163 163 163 146 146 146
 146 78 78 78 44 44 44 44 44 240 240 122 339 339 339 339 208 208 158 158
 158 158 129 129 163 163 163 146 146 146 146 146 78 78 44 44 44 240 240 240
 240 122 92 92 92 92 208 208 208 208 158 129 129 129 129 163 163 146 146 146
 146 146 146 296 296 296 296 236 236 240 240 92 92 92 92 92 208 208 208 208
 129 129 129 129 129 129 129 146 146 146 277 277 277 296 296 296 296 236 236 236
 92 92 92 92 92 92 208 208 208 208 129 129 129 129 129 129 129 277 277 277
 277 277 277 296 296 296 296 236 236 292 92 92 92 92 92 92 208 208 208 208
 129 129 129 129 129 129 145 277 277 277 277 277 277 296 296 296 296 292 292 292
 292 92 92 92 92 92 208 208 208 220 220 220 129 129 129 129 145 277 277 277
 277 277 277 296 296 296 296 292 292 292 292 292 92 92 92 57 57 220 220 220
 220 220 129 129 129 145 145 277 277 277 277 277 277 127 127 127 127 292 292 292
 292 292 92 92 57 57 57 220 220 220 220 220 402 402 402 104 145 277 277 277
 85 85 85 127 127 127 127 380 380 292 292 292 292 130 130 130 130 220 220 220
 220 220 402 402 402 402 267 267 267 85 85 85 85 85 127 127 127 380 380 380
 380 338 338 130 130 130 130 130 220 220 220 402 402 402 402 402 267 267 267 85
 85 85 85 85 127 127 380 380 380 380 338 338 338 130 130 130 130 130 220 220
 220 402 402 402 402 402 267 267 267 85 85 85 85 85 85 127 380 380 380 380
 338 338 338 338 130 130 130 341 341 341 220 402 402 402 402 391 391 391 85 85
 85 85 85 85 85 60 380 380 380 380 338 338 338 338 338 130 341 341 341 341
 243 243 243 391 391 391 391 391 85 85 85 85 85 85 85 60 60 384 377 377
 377 377 377 377 356 341 341 341 341 341 243 243 243 391 391 391 391 391 391 85
 85 85 85 22 22 60 60 384 377 377 377 377 377 377 356 244 244 244 341 341
 243 243 243 391 391 391 391 391 391 190 190 22 22 22 22 22 22 384 377 377
 377 377 377 377 45 45 244 244 244 244 25 243 243 391 391 391 391 391 190 190
 190 22 22 22 22 22 22 228 228 167 167 167 167 167 45 45 250 250 250 250
 25 25 25 391 391 391 391 391 391 190 22 22 22 22 22 22 228 228 228 167
 167 167 167 167 45 45 250 250 250 250 25 25 25 25 337 391 391 391 391 190
 196 22 22 22 22 22 22 228 228 167 167 167 167 167 45 212 250 250 250 25
 25 25 25 205 337 205 205 205 196 196 196 22 22 22 22 22 228 228 228 228
 167 167 167 167 212 212 212 250 239 239 239 25 394 205 205 205 205 205 196 332
 332 22 22 22 22 22 228 228 228 228 167 185 185 185 212 212 212 239 239 239
 239 239 394 394 205 205 205 205 332 332 332 332 22 22 206 206 228 228 228 228
 185 185 185 185 111 111 239 239 239 239 239 239 394 394 394 205 82 82 332 332
 332 332 392 206 206 206 206 206 228 119 185 185 185 111 111 111 281 281 239 239
 239 239 394 394 394 82 82 82 82 332 392 392 392 392 206 206 206 206 119 119
 119 119 111 111 111 111 281 281 281 239 239 357 357 357 394 82 82 82 82 82
 392 392 392 392 206 206 44 44 119 119 119 119 119 111 111 111 281 281 281 239
 357 357 357 357 237 82 82 82 82 392 392 392 392 392 44 44 44 44 119 119
 119 119 119 119 128 128 281 281 281 357 357 357 357 357 47 82 82 82 82 392
 392 392 392 392 44 44 44 44 44 119 119 119 119 119 339 339 339 17 281 368
 368 368 357 357 47 47 47 47 319 319 319 392 392 392 44 44 44 44 44 119
 119 119 119 339 339 339 339 17 158 368 368 368 368 357 47 47 47 47 319 319
 319 78 78 44 44 44 44 44 44 119 119 119 119 339 339 339 339 17 158 158
 368 368 368 368 47 47 47 47 319 319 78 78 78 44 44 44 44 44 44 119
 119 119 339 339 339 339 339 158 158 158 158 368 368 309 163 163 163 163 146 146
 146 78 78 44 44 44 44 44 44 44 122 122 122 339 339 92 208 208 208 158
 158 309 309 309 163 163 163 163 146 146 146 146 146 44 44 44 44 44 44 240
 122 122 122 92 92 92 208 208 208 208 221 309 309 309 163 163 163 163 146 146
 146 146 146 296 296 296 296 296 236 122 122 122 92 92 92 92 208 208 208 208
 221 221 309 309 309 163 163 163 146 146 277 277 296 296 296 296 296 236 236 236
 122 92 92 92 92 92 208 208 208 208 221 129 129 129 129 129 145 145 277 277
 277 277 277 296 296 296 296 296 292 292 92 92 92 92 92 92 208 208 208 208
 288 288 129 129 129 129 145 145 277 277 277 277 277 296 296 296 296 292 292 292
 292 92 92 92 92 92 208 208 208 220 288 288 288 129 129 145 145 145 277 277
 277 277 277 296 296 296 296 292 292 292 292 92 92 92 92 57 57 220 220 220
 220 288 288 288 104 104 145 145 277 277 277 277 127 127 127 127 127 292 292 292
 292 292 92 92 57 57 57 220 220 220 220 220 288 402 104 104 104 145 277 277
 85 85 85 127 127 127 127 380 380 292 292 292 92 130 130 130 130 220 220 220
 220 220 402 402 402 104 104 267 267 85 85 85 85 127 127 127 127 380 380 380
 380 338 338 130 130 130 130 130 220 220 220 220 402 402 402 402 267 267 267 85
 85 85 85 85 127 127 127 380 380 380 338 338 338 338 130 130 130 130 220 220
 220 402 402 402 402 402 267 267 267 85 85 85 85 85 127 127 127 380 380 380
 338 338 338 338 338 130 130 130 341 220 243 243 402 402 391 391 391 391 85 85
 85 85 85 85 85 127 384 384 384 380 338 338 338 338 338 130 130 341 341 341
 243 243 243 243 391 391 391 391 85 85 85 85 85 85 85 384 384 384 384 377
 377 377 377 338 338 244 244 244 244 244 243 243 243 243 391 391 391 391 391 85
 85 85 22 22 22 384 384 384 384 377 377 377 377 377 377 244 244 244 244 244
 243 243 243 243 391 391 391 391 391 190 190 22 22 22 22 22 384 384 384 377
 377 377 377 377 45 45 244 244 244 244 244 243 243 243 391 391 391 391 391 190
 22 22 22 22 22 22 22 384 167 167 167 167 167 167 45 45 45 244 244 244
 25 243 243 243 337 337 391 391 391 196 196 22 22 22 22 22 22 228 228 167
 167 167 167 167 45 45 250 250 250 250 25 25 25 337 337 337 337 391 196 196
 196 22 22 22 22 22 22 228 228 167 167 167 167 147 41 212 212 212 250 239
 239 216 337 337 337 337 337 337 196 196 106 22 22 22 22 22 22 228 228 131
 167 167 167 147 212 212 212 212 239 239 239 216 394 394 205 205 205 106 106 106
 106 106 22 22 22 22 22 228 228 131 185 185 185 185 212 212 212 239 239 239
 239 239 394 394 394 205 205 106 106 106 106 106 106 22 22 206 353 228 353 185
 185 185 185 185 185 212 212 239 239 239 239 239 394 394 394 394 82 82 106 106
 106 106 106 392 206 206 206 370 370 185 185 185 185 185 185 185 281 281 239 239
 239 239 394 394 394 82 82 82 82 106 392 392 392 392 206 206 370 370 370 119
 119 119 185 185 128 128 281 281 281 239 239 357 357 357 394 82 82 82 82 82
 392 392 392 392 206 206 44 370 119 119 119 119 119 128 128 128 281 281 281 239
 357 357 357 357 47 82 82 82 82 392 392 392 392 392 44 44 44 44 44 119
 119 119 119 128 128 128 128 281 281 357 357 357 357 357 47 47 82 82 82 392
 392 392 392 392 44 44 44 44 44 119 119 119 119 128 128 128 128 17 17 17
 357 357 357 357 47 47 47 47 319 319 319 392 392 392 44 44 44 44 44 119
 119 119 119 128 128 128 17 17 17 17 307 307 307 47 47 47 47 47 319 319
 319 78 78 44 44 44 44 44 44 119 119 119 119 128 128 128 17 17 17 17
 307 307 307 307 47 47 47 47 319 319 78 78 78 44 44 44 44 44 44 119
 119 119 119 339 340 340 340 17 17 307 307 307 307 309 163 163 163 47 319 146
 146 78 78 44 44 44 44 44 44 44 122 122 122 122 340 340 340 208 208 307
 307 307 309 309 163 163 163 163 146 146 146 146 146 276 276 276 44 44 44 122
 122 122 122 92 92 340 340 208 208 221 221 309 309 309 309 163 163 163 146 146
 146 146 18 18 18 18 18 18 181 181 181 122 92 92 92 92 208 208 208 221
 221 221 309 309 309 163 163 163 146 146 277 277 296 296 18 18 18 18 181 181
 181 181 92 92 92 92 208 208 208 221 221 221 309 309 182 182 145 145 145 277
 277 277 296 296 296 296 296 296 9 9 181 92 92 92 92 92 208 208 208 221
 221 288 288 182 182 182 145 145 145 277 277 277 381 381 296 296 296 9 9 9
 9 92 92 92 92 92 92 208 208 220 288 288 288 182 182 182 145 145 145 277
 277 277 381 381 381 296 296 9 9 9 9 9 92 92 92 92 92 220 220 220
 288 288 288 182 104 104 145 145 145 277 277 381 381 381 127 127 127 127 9 9
 9 9 92 92 92 92 103 220 220 220 220 220 288 104 104 104 104 145 145 277
 85 85 381 127 127 127 127 127 9 9 9 9 92 92 130 130 103 103 220 220
 220 39 39 402 104 104 104 267 267 85 85 85 85 127 127 127 127 127 380 380
 380 338 338 130 130 130 103 103 103 220 39 39 39 402 402 104 104 267 267 85
 85 85 85 127 127 127 127 380 380 380 338 338 338 338 130 130 103 103 103 103
 39 39 39 402 402 104 267 267 267 85 85 85 85 85 127 127 127 380 380 380
 338 338 338 338 338 130 103 103 103 103 39 39 39 243 391 391 391 391 85 85
 85 85 85 85 127 127 384 384 384 384 338 338 338 338 338 130 244 244 244 244
 243 243 243 243 391 391 391 391 85 85 85 85 85 85 127 384 384 384 384 384
 377 377 338 338 338 244 244 244 244 244 243 243 243 243 243 391 391 391 391 85
 85 22 22 22 22 384 384 384 384 384 377 377 377 377 244 244 244 244 244 244
 243 243 243 243 243 391 391 391 391 190 22 22 22 22 22 22 384 384 384 384
 377 377 377 147 45 45 244 244 244 244 243 243 243 243 391 391 391 391 391 190
 196 22 22 22 22 22 22 384 107 107 167 167 167 147 45 45 244 244 244 244
 244 243 243 243 337 337 337 391 196 196 196 22 22 22 22 22 22 22 107 107
 167 167 167 147 45 45 45 244 244 244 244 25 243 337 337 337 337 337 196 196
 22 22 22 22 22 22 22 22 107 107 107 147 147 147 41 41 212 212 212 216
 216 216 216 337 337 337 337 337 196 196 106 22 22 22 22 22 22 22 131 131
 131 147 147 147 41 212 212 212 239 239 216 216 216 394 247 337 247 106 106 106
 106 106 22 22 22 22 353 353 353 131 131 185 185 185 185 212 212 239 239 239
 239 216 394 394 394 247 106 106 106 106 106 106 106 22 22 22 353 353 353 131
 185 185 185 185 185 212 212 239 239 239 239 239 394 394 394 394 82 106 106 106
 106 106 106 392 42 42 370 353 370 370 185 185 185 185 185 185 281 281 239 239
 239 239 394 394 394 82 82 82 106 106 106 392 392 392 42 42 370 370 370 370
 119 185 185 185 128 128 281 281 281 239 239 357 357 394 394 82 82 82 82 106
 392 392 392 392 42 42 370 370 370 119 119 119 128 128 128 128 128 281 281 239
 1 1 357 357 47 47 82 82 82 392 392 392 392 392 44 44 44 44 44 119
 119 119 128 128 128 128 128 281 281 1 1 1 1 357 47 47 47 47 82 392
 392 392 392 392 44 44 44 44 44 366 119 119 128 128 128 128 128 17 17 17
 1 1 1 47 47 47 47 47 319 319 319 392 392 392 44 44 44 44 366 366
 119 119 128 128 128 128 17 17 17 17 307 307 307 47 47 47 47 47 319 319
 319 392 392 44 44 44 44 44 44 366 366 119 119 128 128 128 17 17 17 17
 307 307 307 307 47 47 47 47 319 319 319 78 78 44 44 44 44 44 44 366
 366 119 119 128 340 340 340 17 17 307 307 307 307 307 163 47 47 47 62 319
 146 276 276 276 276 276 276 44 44 44 122 122 122 340 340 340 340 340 17 307
 307 307 307 309 163 163 163 62 62 62 146 146 276 276 276 276 276 276 44 181
 181 122 122 340 340 340 340 340 221 221 221 307 309 309 309 163 163 62 62 62
 146 146 276 276 276 276 276 276 181 181 181 181 77 77 340 340 340 340 221 221
 221 221 309 309 309 163 62 62 62 62 277 58 58 18 18 18 18 18 181 181