# vtk DataFile Version 2.0
Data set from ImportExport Version 6.5.141.ec284b7a5
ASCII

DATASET RECTILINEAR_GRID
DIMENSIONS 26 26 26
X_COORDINATES 26 float
-3.000000 3.000000 9.000000 15.000000 21.000000 27.000000 33.000000 39.000000 45.000000 51.000000 57.000000 63.000000 69.000000 75.000000 81.000000 87.000000 93.000000 99.000000 105.000000 111.000000 117.000000 
123.000000 129.000000 135.000000 141.000000 147.000000 
Y_COORDINATES 26 float
-3.000000 3.000000 9.000000 15.000000 21.000000 27.000000 33.000000 39.000000 45.000000 51.000000 57.000000 63.000000 69.000000 75.000000 81.000000 87.000000 93.000000 99.000000 105.000000 111.000000 117.000000 
123.000000 129.000000 135.000000 141.000000 147.000000 
Z_COORDINATES 26 float
-3.000000 3.000000 9.000000 15.000000 21.000000 27.000000 33.000000 39.000000 45.000000 51.000000 57.000000 63.000000 69.000000 75.000000 81.000000 87.000000 93.000000 99.000000 105.000000 111.000000 117.000000 
123.000000 129.000000 135.000000 141.000000 147.000000 
CELL_DATA 15625
SCALARS FeatureIds int 1
LOOKUP_TABLE default
 9 78 78 78 78 78 78 78 50 50 50 50 50 50 50 22 25 25 25 25
 25 25 25 25 25 9 78 78 78 78 78 78 78 50 50 50 50 50 50 22
 22 22 25 25 25 25 25 25 25 25 9 78 78 78 78 78 78 78 50 50
 50 50 50 22 22 22 22 22 25 25 25 25 25 25 9 78 78 78 78 78
 78 78 78 7 7 7 7 7 22 22 22 22 22 22 25 25 25 25 25 9
 78 78 78 78 78 78 78 78 7 7 7 7 7 22 22 22 22 22 22 22
 38 38 38 38 9 78 78 78 78 78 78 78 7 7 7 7 7 7 22 22
 22 22 22 22 22 38 38 38 38 38 38 38 23 23 23 23 23 94 94 7
 7 7 7 22 22 22 22 22 22 38 38 38 38 38 38 38 38 23 23 23
 23 23 94 94 94 7 7 7 22 22 22 22 22 38 38 38 38 38 38 38
 38 38 23 23 23 23 23 23 94 94 7 7 7 22 22 22 22 22 38 38
 38 38 38 38 38 38 38 23 23 23 23 23 23 46 94 7 7 7 97 97
 97 97 97 38 38 38 38 38 38 38 38 38 23 23 23 23 23 23 36 36
 36 7 97 97 97 97 97 97 38 38 38 38 38 38 38 38 38 23 23 23
 23 23 36 36 36 36 7 97 97 97 97 97 97 38 38 38 38 38 38 38
 38 81 81 23 23 43 43 43 43 43 34 34 97 97 97 97 97 97 38 38
 38 38 38 38 38 89 81 81 81 81 43 43 43 43 34 34 34 97 97 97
 97 97 97 89 89 38 38 89 89 89 89 81 81 81 81 43 43 43 43 43
 43 43 97 97 97 97 97 89 89 89 89 89 89 89 89 89 81 81 81 81
 16 16 16 16 16 16 16 16 97 97 97 89 89 89 89 89 89 89 89 89
 89 89 81 81 16 16 16 16 16 16 16 16 16 99 99 99 89 89 89 89
 89 89 89 89 89 89 47 81 16 16 16 16 16 16 16 16 16 16 99 99
 99 99 89 89 89 89 89 89 89 89 89 47 16 16 16 16 16 16 16 16
 16 16 16 99 99 99 99 99 89 89 89 89 89 89 89 89 89 16 16 16
 16 16 16 16 16 16 16 99 99 99 99 99 99 89 89 89 89 89 89 89
 89 16 16 16 16 16 16 16 16 16 16 67 99 99 99 99 99 99 99 89
 89 89 89 89 89 89 16 16 16 16 16 16 16 16 16 16 99 99 99 99
 99 99 99 99 25 25 25 25 89 89 9 78 78 78 16 16 16 16 16 16
 16 99 99 99 99 99 99 99 99 25 25 25 25 25 25 9 78 78 78 78
 78 16 16 16 16 16 99 99 99 99 99 99 99 25 25 25 25 25 25 25
 78 78 78 78 78 78 78 16 16 16 16 99 99 99 99 99 99 99 25 25
 25 25 25 25 25 9 9 78 78 78 78 78 78 50 50 50 50 50 50 99
 99 99 25 25 25 25 66 66 66 9 9 78 78 78 78 78 78 78 50 50
 50 50 50 50 50 22 22 25 25 25 25 25 66 9 9 9 78 78 78 78
 78 78 78 50 50 50 50 50 50 22 22 22 22 25 25 25 25 25 9 9
 9 78 78 78 78 78 78 78 7 7 7 7 7 22 22 22 22 22 22 25
 25 25 25 9 9 9 78 78 78 78 78 78 78 7 7 7 7 7 22 22
 22 22 22 22 87 87 87 87 87 9 9 78 78 78 78 78 78 78 7 7
 7 7 7 22 22 22 22 22 22 87 87 87 87 87 87 38 23 23 23 23
 23 23 94 94 94 94 7 7 22 22 22 22 22 22 87 87 87 87 87 87
 38 23 23 23 23 23 23 46 94 94 94 7 7 22 22 22 22 22 87 87
 87 38 38 38 38 38 23 23 23 23 23 23 46 94 94 94 7 7 22 22
 22 22 22 38 38 38 38 38 38 38 38 23 23 23 23 23 23 46 46 94
 34 34 7 97 97 97 97 38 38 38 38 38 38 38 38 38 23 23 23 23
 23 34 34 34 34 34 34 34 97 97 97 97 97 38 38 38 38 38 38 38
 38 23 23 23 34 34 34 34 34 34 34 34 97 97 97 97 97 97 38 38
 38 38 38 38 38 89 89 81 34 34 34 34 34 34 34 34 34 97 97 97
 97 97 97 38 38 38 38 38 38 38 89 89 81 81 34 34 34 34 34 34
 34 34 14 97 97 97 97 97 89 89 89 89 89 89 89 89 89 81 81 81
 34 43 43 34 34 34 14 14 14 97 97 97 89 89 89 89 89 89 89 89
 89 89 81 81 81 16 16 16 16 16 16 16 14 14 14 89 89 89 89 89
 89 89 89 89 89 89 89 81 81 16 16 16 16 16 16 16 16 16 99 99
 99 89 89 89 89 89 89 89 89 89 89 89 81 16 16 16 16 16 16 16
 16 16 16 99 99 99 99 89 89 89 89 89 89 89 89 89 89 16 16 16
 16 16 16 16 16 16 16 99 99 99 99 99 99 89 89 89 89 89 89 89
 89 89 16 16 16 16 16 16 16 16 16 16 99 99 99 99 99 99 89 89
 89 89 89 89 89 89 56 56 16 16 16 16 16 16 16 16 16 99 99 99
 99 99 99 99 89 89 89 89 89 89 89 56 56 16 16 16 16 16 16 16
 16 99 99 99 99 99 99 99 99 89 89 89 89 89 89 9 9 78 78 16
 16 16 16 16 16 16 99 99 99 99 99 99 99 99 25 25 25 25 25 9
 9 9 78 78 78 78 16 16 16 16 16 99 99 99 99 99 99 99 99 25
 25 25 25 25 9 9 9 78 78 78 78 78 16 16 16 16 99 99 99 99
 99 99 99 99 25 25 66 66 66 9 9 9 78 78 78 78 78 78 50 50
 50 50 50 31 99 99 99 99 25 25 66 66 66 66 9 9 9 78 78 78
 78 78 78 50 50 50 50 50 50 99 99 99 99 25 25 66 66 66 9 9
 9 9 78 78 78 78 78 78 70 70 50 50 50 50 22 22 22 22 25 25
 66 66 66 9 9 9 78 78 78 78 78 78 70 70 70 70 50 50 22 22
 22 22 22 87 87 87 87 87 9 9 9 78 78 78 78 78 78 70 70 70
 7 7 7 22 22 22 22 22 87 87 87 87 87 87 9 9 78 78 78 78
 78 78 94 94 94 7 7 7 22 22 22 22 22 87 87 87 87 87 87 87
 87 87 23 23 23 23 23 94 94 94 94 7 7 22 22 22 22 87 87 87
 87 87 87 87 87 87 87 23 23 23 23 46 46 94 94 94 7 7 22 22
 22 22 87 87 87 87 87 87 87 87 87 23 23 23 23 23 46 46 46 94
 34 34 7 22 22 22 22 87 87 87 87 87 87 87 87 87 23 23 23 23
 23 46 46 46 34 34 34 34 34 97 97 97 87 87 87 87 87 87 87 87
 87 23 23 23 23 23 46 46 34 34 34 34 34 14 97 97 97 97 38 38
 38 38 38 38 38 89 34 34 34 34 34 34 34 34 34 34 34 34 14 97
 97 97 97 38 38 38 38 38 38 38 89 89 34 34 34 34 34 34 34 34
 34 34 34 14 14 97 97 97 89 89 38 38 38 89 89 89 89 34 34 34
 34 34 34 34 34 34 34 14 14 14 14 97 89 89 89 89 89 89 89 89
 89 89 81 34 34 34 34 34 34 34 34 14 14 14 14 14 89 89 89 89
 89 89 89 89 89 89 89 81 56 65 65 65 65 16 16 16 14 14 14 14
 14 89 89 89 89 89 89 89 89 89 89 89 56 56 16 16 16 16 16 16
 16 16 14 99 99 99 89 89 89 89 89 89 89 89 89 89 56 56 56 16
 16 16 16 16 16 16 16 99 99 99 99 99 89 89 89 89 89 89 89 89
 89 56 56 56 16 16 16 16 16 16 16 16 99 99 99 99 99 99 89 89
 89 89 89 89 89 89 56 56 56 16 16 16 16 16 16 16 16 99 99 99
 99 99 99 89 89 89 89 89 89 89 56 56 56 56 16 16 16 16 16 16
 16 99 99 99 99 99 99 99 99 89 89 89 89 89 89 56 56 56 56 16
 16 16 16 16 16 16 99 99 99 99 99 99 99 99 89 89 89 89 89 89
 9 9 56 56 16 16 16 16 16 16 16 99 99 99 99 99 99 99 99 99
 25 25 89 89 9 9 9 9 78 78 78 16 16 16 16 31 31 99 99 99
 99 99 99 99 99 66 66 66 66 9 9 9 9 78 78 78 78 16 16 16
 31 31 31 99 99 99 99 99 99 25 66 66 66 66 9 9 9 9 78 78
 78 78 78 50 50 50 31 31 31 31 99 99 99 99 66 66 66 66 66 9
 9 9 9 78 78 78 78 78 70 70 50 50 31 31 31 99 99 99 99 66
 66 66 66 9 9 9 9 78 78 78 78 78 70 70 70 70 50 50 31 31
 99 99 99 87 33 33 66 66 9 9 9 9 78 78 78 78 78 70 70 70
 70 70 50 31 22 22 22 87 87 87 87 87 87 9 9 9 9 78 78 78
 78 78 70 70 70 70 1 1 22 22 22 22 87 87 87 87 87 87 87 87
 87 9 78 78 78 78 1 1 1 1 1 1 1 1 22 22 87 87 87 87
 87 87 87 87 87 87 87 23 23 23 23 34 1 1 1 1 1 1 1 22
 22 87 87 87 87 87 87 87 87 87 87 87 23 23 23 34 34 46 46 1
 1 1 1 1 22 22 87 87 87 87 87 87 87 87 87 87 87 23 23 23
 34 46 46 46 46 1 1 1 1 22 87 87 87 87 87 87 87 87 87 87
 87 87 23 23 23 34 46 46 46 34 34 34 34 34 14 87 87 87 87 87
 87 87 87 87 87 87 34 34 34 34 34 46 46 34 34 34 34 34 14 14
 14 14 87 87 87 87 87 87 87 87 87 34 34 34 34 34 34 34 34 34
 34 34 14 14 14 14 14 14 87 87 87 87 87 87 87 89 34 34 34 34
 34 34 34 34 34 34 34 14 14 14 14 14 14 89 89 89 89 89 89 89
 89 89 34 34 34 34 34 34 34 34 34 14 14 14 14 14 14 89 89 89
 89 89 89 89 89 89 89 34 34 34 34 34 34 34 34 34 14 14 14 14
 14 14 89 89 89 89 89 89 89 89 89 89 53 56 65 65 65 65 65 65
 65 14 14 14 14 14 89 89 89 89 89 89 89 89 89 89 89 56 56 65
 65 65 65 65 65 65 65 14 14 14 99 89 89 89 89 89 89 89 89 89
 89 56 56 56 56 65 65 65 65 65 65 65 99 99 99 99 99 89 89 89
 89 89 89 89 89 89 56 56 56 56 65 65 65 65 65 16 16 99 99 99
 99 99 99 89 89 89 89 89 89 89 89 56 56 56 56 56 16 16 16 16
 16 16 99 99 99 99 99 99 89 89 89 89 89 89 89 56 56 56 56 56
 56 16 16 16 16 16 99 99 99 99 99 99 99 99 89 89 89 89 89 89
 56 56 56 56 56 56 16 16 16 16 16 99 99 99 99 99 99 99 99 89
 89 89 89 89 89 9 9 56 56 56 56 16 16 16 16 31 31 99 99 99
 99 99 99 99 99 89 89 89 89 9 9 9 9 78 78 78 16 16 16 31
 31 31 31 31 99 99 99 99 99 99 66 66 66 9 9 9 9 9 78 78
 78 78 16 16 31 31 31 31 31 31 99 99 99 99 99 66 66 66 66 9
 9 9 9 9 78 78 78 78 74 31 31 31 31 31 31 31 99 99 33 33
 33 33 66 9 9 9 9 9 78 78 78 78 74 74 70 31 31 31 31 31
 31 99 99 33 33 33 33 66 9 9 9 9 9 78 78 78 78 74 74 70
 70 31 31 31 31 31 99 37 33 33 33 33 33 9 9 9 9 9 78 78
 78 1 1 70 70 70 1 1 31 31 37 37 37 87 87 87 87 87 9 9
 9 9 9 78 78 1 1 1 1 1 1 1 1 1 1 37 37 87 87 87
 87 87 87 87 87 87 87 87 78 1 1 1 1 1 1 1 1 1 1 1
 37 87 87 87 87 87 87 87 87 87 87 87 87 1 1 1 1 1 1 1
 1 1 1 1 1 37 87 87 87 87 87 87 87 87 87 87 87 87 34 34
 34 1 1 1 1 1 1 1 1 1 87 87 87 87 87 87 87 87 87 87
 87 87 34 34 34 34 34 46 46 1 1 1 1 1 1 87 87 87 87 87
 87 87 87 87 87 87 87 34 34 34 34 34 46 34 34 34 1 1 1 1
 87 87 87 87 87 87 87 87 87 87 87 87 34 34 34 34 34 34 34 34
 34 34 34 14 14 14 14 87 87 87 87 87 87 87 87 87 34 34 34 34
 34 34 34 34 34 34 34 14 14 14 14 14 14 87 87 87 87 87 87 87
 89 34 34 34 34 34 34 34 34 34 34 14 14 14 14 14 14 14 89 89
 89 87 87 89 89 89 34 34 34 34 34 34 34 34 34 34 14 14 14 14
 14 14 89 89 89 89 89 89 89 89 89 89 53 53 34 34 34 34 34 34
 34 14 14 14 14 14 14 89 89 89 89 89 89 89 89 89 89 53 53 53
 65 65 65 65 65 65 14 14 14 14 14 14 89 89 89 89 89 89 89 89
 89 56 56 56 65 65 65 65 65 65 65 14 14 14 14 14 89 89 89 89
 89 89 89 89 89 89 56 56 56 56 65 65 65 65 65 65 65 99 99 99
 99 99 89 89 89 89 89 89 89 89 89 56 56 56 56 65 65 65 65 65
 65 65 99 99 99 99 99 99 89 89 89 89 89 89 89 56 56 56 56 56
 56 65 65 65 65 65 99 99 99 99 99 99 99 89 89 89 89 89 89 89
 56 56 56 56 56 56 65 65 65 65 65 99 99 99 99 99 99 99 99 89
 89 89 89 89 89 40 56 56 56 56 56 56 16 16 16 31 31 99 99 99
 99 99 99 99 89 89 89 89 89 40 40 40 56 56 56 56 56 16 16 31
 31 31 31 31 99 99 99 99 99 99 89 89 89 89 40 9 9 9 9 56
 56 56 16 16 31 31 31 31 31 31 99 99 99 99 99 66 66 66 9 9
 9 9 9 9 78 78 78 16 31 31 31 31 31 31 31 31 99 99 99 99
 66 66 66 9 9 9 9 9 9 78 78 78 74 74 74 31 31 31 31 31
 31 99 99 33 33 33 33 33 9 9 9 9 9 78 78 78 74 74 74 74
 74 31 31 31 31 31 99 33 33 33 33 33 33 9 9 9 9 9 64 64
 64 74 74 74 74 74 74 31 31 31 31 37 37 33 33 33 33 33 9 9
 9 9 64 64 64 1 1 74 74 74 74 74 1 1 31 37 37 37 37 87
 87 87 87 87 9 9 9 64 64 64 1 1 1 1 1 1 1 1 1 1
 37 37 37 37 87 87 87 87 87 87 87 87 64 64 1 1 1 1 1 1
 1 1 1 1 1 37 37 37 87 87 87 87 87 87 87 87 87 87 1 1
 1 1 1 1 1 1 1 1 1 1 37 37 37 87 87 87 87 87 87 87
 87 87 87 1 1 1 1 1 1 1 1 1 1 1 1 37 37 87 87 87
 87 87 87 87 87 87 87 34 34 34 34 34 1 1 1 1 1 1 1 1
 87 68 68 87 87 87 87 87 87 87 87 87 34 34 34 34 34 34 34 34
 1 1 1 1 1 1 68 68 87 87 87 87 87 87 87 87 34 34 34 34
 34 34 34 34 34 34 34 1 14 14 14 14 68 87 87 87 87 87 87 87
 87 34 34 34 34 34 34 34 34 34 34 34 14 14 14 14 14 68 87 87
 87 87 87 87 87 34 34 34 34 34 34 34 34 34 34 34 14 14 14 14
 14 14 14 89 87 87 87 87 87 87 89 34 34 34 34 34 34 34 34 34
 34 14 14 14 14 14 14 14 89 89 89 89 89 89 89 89 53 53 53 34
 34 34 34 34 34 34 14 14 14 14 14 14 89 89 89 89 89 89 89 89
 89 89 53 53 53 65 65 65 65 65 65 14 14 14 14 14 14 32 32 89
 89 89 89 89 89 89 56 56 53 65 65 65 65 65 65 65 65 14 14 14
 14 32 32 32 89 89 89 89 89 89 89 56 56 56 56 65 65 65 65 65
 65 65 65 14 99 99 32 32 32 89 89 89 89 89 89 56 56 56 56 56
 65 65 65 65 65 65 65 99 99 99 99 99 32 89 89 89 89 89 89 89
 56 56 56 56 56 65 65 65 65 65 65 65 99 99 99 99 99 99 89 89
 89 89 89 89 89 40 40 56 56 56 56 65 65 65 65 65 99 99 99 99
 99 99 99 99 89 89 89 89 89 40 40 40 40 56 56 56 56 65 65 65
 31 31 31 31 99 99 99 99 99 89 89 89 89 89 40 40 40 40 40 56
 56 56 65 65 31 31 31 31 31 31 99 99 99 99 99 89 89 89 40 40
 9 40 40 40 56 56 56 65 31 31 31 31 31 31 31 31 99 99 99 99
 33 33 33 9 9 9 9 9 9 78 56 56 65 31 31 31 31 31 31 31
 31 99 99 99 33 33 33 33 9 9 9 9 9 9 78 78 74 74 74 74
 31 31 31 31 31 31 31 31 33 33 33 33 33 33 9 9 9 9 64 64
 64 74 74 74 74 74 31 31 31 31 31 31 33 33 33 33 33 33 33 9
 9 9 64 64 64 64 74 74 74 74 74 74 31 31 31 37 37 37 33 33
 33 33 33 52 9 9 64 64 64 64 64 74 74 74 74 74 74 74 31 37
 37 37 37 37 33 33 52 52 52 52 9 64 64 64 64 1 1 1 74 74
 74 1 1 1 37 37 37 37 37 87 87 87 87 87 87 87 64 64 64 64
 1 1 1 1 1 1 1 1 1 1 37 37 37 37 87 87 87 87 87 87
 87 87 64 64 1 1 1 1 1 1 1 1 1 1 1 37 37 37 37 87
 87 87 87 87 87 87 87 87 1 1 1 1 1 1 1 1 1 1 1 1
 37 37 37 87 87 87 87 87 87 87 87 87 34 34 34 34 1 1 1 1
 1 1 1 1 1 68 68 68 68 87 87 87 87 87 87 87 87 34 34 34
 34 34 34 1 1 1 1 1 1 1 68 68 68 68 87 87 87 87 87 87
 87 34 34 34 34 34 34 34 34 34 34 1 1 1 60 60 68 68 68 87
 87 87 87 87 87 87 34 34 34 34 34 34 34 34 34 34 34 14 14 60
 60 60 68 68 87 87 87 87 87 87 34 34 34 34 34 34 34 34 34 34
 34 14 14 14 14 60 60 68 68 87 87 87 87 87 87 61 34 34 34 34
 34 34 34 34 34 34 14 14 14 14 14 14 14 32 32 89 89 89 89 89
 61 53 53 53 34 34 34 34 34 34 34 14 14 14 14 14 14 32 32 32
 32 89 89 89 89 89 53 53 53 65 65 65 65 65 65 65 14 14 14 14
 14 32 32 32 32 32 32 89 89 89 56 56 56 56 65 65 65 65 65 65
 65 14 14 14 14 14 32 32 32 32 32 32 89 89 89 56 56 56 56 56
 65 65 65 65 65 65 65 65 14 99 32 32 32 32 32 32 89 89 89 89
 56 56 56 56 56 65 65 65 65 65 65 65 99 99 99 91 32 32 32 32
 32 89 89 89 89 40 56 56 56 56 56 65 65 65 65 65 65 99 99 91
 91 99 32 32 32 89 89 89 89 40 40 40 40 56 56 56 65 65 65 65
 65 31 31 99 99 99 99 99 99 89 89 89 89 40 40 40 40 40 40 56
 56 56 65 65 65 31 31 31 31 31 99 99 99 99 89 89 89 89 40 40
 40 40 40 40 40 56 56 65 65 31 31 31 31 31 31 31 99 99 99 99
 89 89 40 40 40 40 40 40 40 40 56 56 65 31 31 31 31 31 31 31
 31 99 99 99 99 33 33 33 40 40 9 40 40 40 40 56 56 31 31 31
 31 31 31 31 31 31 31 99 99 33 33 33 33 9 9 9 9 9 9 64
 64 74 74 74 74 31 31 31 31 31 31 31 33 33 33 33 33 33 52 9
 9 9 9 64 64 64 74 74 74 74 74 10 10 31 31 31 37 33 33 33
 33 33 33 52 9 9 64 64 64 64 64 74 74 74 74 74 10 10 10 31
 37 37 37 52 52 33 52 52 52 52 64 64 64 64 64 64 64 74 74 74
 74 10 10 10 37 37 37 37 37 52 52 52 52 52 52 64 64 64 64 64
 64 1 1 74 74 74 1 10 10 37 37 37 37 37 37 52 52 52 52 52
 87 64 64 64 64 1 1 1 1 1 1 1 1 1 1 37 37 37 37 37
 87 87 87 87 87 87 87 29 29 1 1 1 1 1 1 1 1 1 1 1
 37 37 37 37 87 87 87 87 87 87 87 87 29 29 1 1 1 1 1 1
 1 1 1 1 1 37 37 37 37 87 87 87 87 87 87 87 87 34 34 34
 1 1 1 1 1 1 1 1 1 1 68 68 68 68 87 87 87 87 87 87
 87 87 34 34 34 34 34 1 1 1 1 1 1 1 1 68 68 68 68 68
 87 87 87 87 87 87 87 34 34 34 34 34 34 34 1 1 1 1 1 60
 60 68 68 68 68 87 87 87 87 87 87 34 34 34 34 34 34 34 34 34
 34 1 1 14 60 60 60 68 68 68 87 87 87 87 87 61 34 34 34 34
 34 34 34 34 34 34 34 14 14 60 60 60 68 68 68 87 87 61 61 61
 61 61 34 34 34 34 34 34 34 34 34 14 14 14 14 14 60 32 32 32
 32 32 61 61 61 61 61 61 34 34 34 34 34 34 34 34 14 14 14 14
 14 14 32 32 32 32 32 61 61 61 61 61 61 53 65 65 65 65 65 65
 65 14 14 14 14 14 32 32 32 32 32 32 32 61 61 61 61 56 56 65
 65 65 65 65 65 65 65 14 14 14 32 32 32 32 32 32 32 32 61 61
 61 56 56 56 56 65 65 65 65 65 65 65 14 91 91 32 32 32 32 32
 32 32 32 61 61 40 56 56 56 56 65 65 65 65 65 65 65 65 91 91
 91 32 32 32 32 32 32 89 61 61 40 40 56 56 56 56 65 65 65 65
 65 65 99 99 91 91 91 32 32 32 32 32 89 61 40 40 40 40 56 56
 56 65 65 65 65 65 31 31 31 91 91 91 32 32 32 32 89 89 40 40
 40 40 40 40 56 56 56 65 65 65 31 31 31 31 31 99 99 99 99 32
 89 89 40 40 40 40 40 40 40 40 56 56 65 92 92 31 31 31 31 31
 31 99 99 99 99 89 89 40 40 40 40 40 40 40 40 40 40 92 92 92
 31 31 31 31 31 31 31 99 99 99 33 33 40 40 40 40 40 40 40 40
 40 40 92 92 92 31 31 31 31 31 31 31 99 33 33 33 33 33 40 40
 9 80 80 80 80 80 80 74 74 74 10 31 31 31 31 31 17 17 33 33
 52 52 52 52 52 80 80 80 80 80 80 80 74 74 74 10 10 10 10 31
 31 37 33 33 52 52 52 52 52 52 80 80 80 80 80 80 80 74 74 74
 10 10 10 10 10 37 37 52 52 52 52 52 52 52 52 80 80 80 80 80
 80 80 74 74 74 10 10 10 10 10 37 37 37 37 52 52 52 52 52 52
 80 80 80 80 80 29 1 1 1 74 10 10 10 10 10 37 37 37 37 52
 52 52 52 52 52 80 80 80 80 29 29 1 1 1 1 1 1 1 1 1
 37 37 37 37 37 52 52 52 52 52 87 29 29 29 29 29 1 1 1 1
 1 1 1 1 1 37 37 37 37 87 87 87 87 87 87 87 29 29 29 29
 1 1 1 1 1 1 1 1 1 1 37 37 37 37 87 87 87 87 87 87
 87 87 29 29 34 1 1 1 1 1 1 1 1 1 1 68 68 68 68 87
 87 87 87 87 87 87 87 34 34 34 34 1 1 1 1 1 1 1 1 1
 68 68 68 68 68 87 87 87 87 87 87 87 34 34 34 34 34 34 1 1
 1 1 1 1 60 60 68 68 68 68 87 87 87 87 87 61 61 34 34 34
 34 34 34 34 34 1 1 1 14 60 60 60 68 68 68 87 87 87 87 87
 61 61 34 34 34 34 34 34 34 34 34 34 14 14 60 60 60 68 68 68
 61 61 61 61 61 61 61 34 34 34 34 34 34 34 34 34 14 14 14 14
 14 60 68 32 32 61 61 61 61 61 61 61 61 34 34 34 34 34 34 34
 34 14 14 14 14 14 14 32 32 32 61 61 61 61 61 61 61 61 61 65
 65 65 65 65 65 65 14 14 14 14 14 32 32 32 32 32 61 61 61 61
 61 61 61 56 65 65 65 65 65 65 65 65 14 14 14 32 32 32 32 32
 32 32 61 61 61 61 61 61 56 56 65 65 65 65 65 65 65 14 91 91
 32 32 32 32 32 32 32 61 61 61 61 61 56 54 54 65 65 65 65 65
 65 65 65 91 91 91 32 32 32 32 32 32 61 61 61 40 40 40 54 54
 56 85 85 85 65 65 65 91 91 91 91 69 69 69 32 32 32 61 61 61
 40 40 40 40 56 56 85 85 85 85 85 31 31 31 91 91 69 69 69 32
 32 32 61 40 40 40 40 40 40 40 56 85 85 85 92 92 31 31 31 31
 99 69 69 69 32 32 32 61 40 40 40 40 40 40 40 40 85 92 92 92
 92 31 31 31 31 31 99 99 99 99 89 89 40 40 40 40 40 40 40 40
 40 92 92 92 92 92 31 31 31 31 31 31 99 99 99 33 33 40 40 40
 40 40 40 40 40 40 92 92 92 92 92 31 31 31 31 31 31 17 33 33
 33 33 33 40 40 80 80 80 80 80 80 80 74 74 74 10 10 10 10 31
 17 17 17 17 52 52 52 52 52 52 80 80 80 80 80 80 80 74 74 10
 10 10 10 10 10 17 17 17 52 52 52 52 52 52 52 80 80 80 80 80
 80 80 74 74 10 10 10 10 10 10 10 37 52 52 52 52 52 52 52 52
 80 80 80 80 80 80 80 74 74 10 10 10 10 10 10 37 37 37 52 52
 52 52 52 52 52 80 80 80 80 80 29 29 1 1 1 10 10 10 10 10
 37 37 37 37 52 52 52 52 52 52 29 29 29 29 29 29 29 1 1 1
 1 1 10 1 1 37 37 37 37 52 52 52 52 52 52 29 29 29 29 29
 29 1 1 1 1 1 1 1 1 1 37 37 37 37 87 87 52 87 87 87
 29 29 29 29 29 29 1 1 1 1 1 1 1 1 1 37 37 37 37 87
 87 87 87 87 87 96 29 29 29 29 29 1 1 1 1 1 1 1 1 1
 68 68 68 68 87 87 87 87 87 87 96 29 29 29 34 34 1 1 1 1
 1 1 1 1 1 68 68 68 68 68 87 87 87 96 96 96 96 29 29 34
 34 34 1 1 1 1 1 88 88 88 60 68 68 68 68 87 87 87 96 96
 96 96 96 34 34 34 34 34 34 1 88 88 88 88 60 60 60 68 68 68
 87 87 61 96 96 61 61 34 34 34 34 34 34 34 88 88 88 88 88 88
 60 60 68 68 61 61 61 61 61 61 61 61 61 34 34 34 34 34 34 88
 88 88 88 88 88 14 60 68 61 61 61 61 61 61 61 61 61 61 61 34
 34 34 34 34 88 88 88 88 88 14 14 14 32 61 61 61 61 61 61 61
 61 61 61 61 18 65 65 65 65 65 88 88 88 14 14 14 32 32 32 61
 61 61 61 61 61 61 61 61 61 61 65 65 85 65 65 65 65 88 14 14
 32 32 32 32 32 61 61 61 61 61 61 61 61 61 56 85 85 85 85 85
 85 85 84 91 91 32 32 32 32 32 32 61 61 61 61 61 61 54 54 54
 85 85 85 85 85 85 85 84 91 91 91 69 69 69 32 32 61 61 61 61
 61 40 54 54 54 85 85 85 85 85 85 85 84 91 91 91 69 69 69 32
 32 61 61 61 61 40 40 40 54 54 85 85 85 85 85 85 84 84 84 69
 69 69 69 69 32 32 61 61 61 61 40 40 40 40 40 85 85 85 85 85
 92 92 84 31 31 69 69 69 69 32 32 61 61 40 40 40 40 40 40 40
 85 85 85 92 92 92 92 31 31 31 17 69 69 69 32 32 61 40 40 40
 40 40 40 40 40 40 85 92 92 92 92 92 31 31 31 31 17 17 17 17
 24 24 40 40 40 40 40 40 40 40 40 92 92 92 92 92 92 31 31 31
 17 17 17 17 17 33 24 40 40 40 80 80 80 80 80 80 80 74 74 10
 10 10 10 10 17 17 17 17 17 17 52 52 52 52 52 80 80 80 80 80
 80 80 74 74 10 10 10 10 10 10 17 17 17 17 52 52 52 52 52 52
 80 80 80 80 80 80 80 74 74 10 10 10 10 10 10 76 76 52 52 52
 52 52 52 52 52 80 80 80 80 80 29 29 29 74 10 10 10 10 10 10
 76 76 37 52 52 52 52 52 52 52 80 80 80 80 29 29 29 1 1 1
 10 10 10 10 10 76 37 37 52 52 52 52 52 52 52 29 29 29 29 29
 29 29 1 1 1 1 10 10 10 10 37 37 37 77 77 52 52 52 52 52
 29 29 29 29 29 29 29 1 1 1 1 1 1 1 1 37 37 37 37 77
 52 52 52 52 96 96 29 29 29 29 29 29 1 1 1 1 1 1 1 1
 1 37 37 37 87 87 96 96 96 96 96 29 29 29 29 29 1 1 1 1
 1 1 1 88 88 88 68 68 68 87 96 96 96 96 96 96 96 29 29 29
 29 1 1 1 1 1 88 88 88 88 68 68 68 68 68 96 96 96 96 96
 96 96 29 29 34 34 1 1 88 88 88 88 88 88 88 88 57 12 68 68
 96 96 96 96 96 96 96 96 34 34 34 88 88 88 88 88 88 88 88 88
 60 12 12 12 12 96 96 96 96 96 96 61 61 34 34 34 34 88 88 88
 88 88 88 88 88 88 57 12 12 58 58 58 61 61 61 61 61 61 61 34
 34 34 88 88 88 88 88 88 88 88 88 57 12 58 58 58 58 61 61 61
 61 61 61 61 18 18 18 88 88 88 88 88 88 88 88 101 61 61 61 61
 61 61 61 61 61 61 61 61 61 18 18 18 18 88 88 88 88 88 88 88
 101 61 61 61 61 61 61 61 61 61 61 61 61 61 18 18 18 85 85 85
 85 88 88 88 93 5 32 32 61 61 61 61 61 61 61 61 61 61 61 85
 85 85 85 85 85 85 85 84 5 5 5 69 32 61 61 61 61 61 61 61
 61 61 61 54 54 85 85 85 85 85 85 85 84 84 5 5 69 69 69 61
 61 61 61 61 61 61 61 54 54 54 85 85 85 85 85 85 85 84 84 5
 5 69 69 69 61 61 61 61 61 61 61 61 54 54 54 85 85 85 85 85
 85 84 84 84 84 5 69 69 69 61 61 61 61 61 61 40 40 40 40 40
 85 85 85 85 85 85 84 84 84 84 17 17 17 17 17 61 61 61 61 61
 40 40 40 40 40 85 85 85 92 92 92 84 84 84 84 17 17 17 17 17
 24 24 24 40 40 40 40 40 40 40 85 85 85 92 92 92 92 84 84 84
 17 17 17 17 17 24 24 24 24 40 40 40 40 40 40 85 92 92 92 92
 92 92 84 31 17 17 17 17 17 17 24 24 24 24 40 73 73 80 80 80
 90 90 90 2 2 10 10 10 10 17 17 17 17 17 17 52 24 24 24 24
 73 73 80 80 80 80 80 74 74 10 10 10 10 10 76 17 17 17 17 17
 52 52 52 52 52 80 80 80 80 80 80 29 29 74 10 10 10 10 10 76
 76 76 76 52 52 52 52 52 52 52 73 73 80 80 29 29 29 29 74 10
 10 10 10 10 76 76 76 76 52 52 52 52 52 52 52 73 29 29 29 29
 29 29 29 1 1 10 10 10 10 76 76 76 76 77 77 52 52 52 52 52
 29 29 29 29 29 29 29 29 1 1 1 1 10 10 76 76 76 77 77 77
 77 52 52 52 52 29 29 29 29 29 29 29 29 1 1 1 1 1 1 1
 76 76 77 77 77 77 96 96 96 96 96 29 29 29 29 29 29 1 1 1
 1 1 88 88 88 88 100 77 77 77 96 96 96 96 96 96 96 29 29 29
 29 29 1 1 88 88 88 88 88 88 88 57 12 96 96 96 96 96 96 96
 96 96 29 29 29 29 88 88 88 88 88 88 88 88 88 57 57 12 12 96
 96 96 96 96 96 96 96 96 29 29 72 88 88 88 88 88 88 88 88 88
 57 57 12 12 96 96 96 96 96 96 96 96 96 72 72 72 88 88 88 88
 88 88 88 88 57 57 57 12 12 12 96 96 96 96 96 96 96 96 72 72
 72 88 88 88 88 88 88 88 88 88 57 57 12 12 58 58 58 58 96 96
 61 61 61 61 18 18 88 88 88 88 88 88 88 88 88 57 57 12 12 58
 58 58 58 58 61 61 61 61 61 18 18 18 88 88 88 88 88 88 88 88
 101 101 61 61 61 61 58 61 61 61 61 61 61 61 18 18 18 18 88 88
 88 88 88 88 88 93 93 61 61 61 61 61 61 61 61 61 61 61 61 18
 18 18 85 85 85 88 88 88 88 93 93 93 75 75 61 61 61 61 61 61
 61 61 61 61 85 85 85 85 85 85 85 85 84 5 5 5 5 75 75 61
 61 61 61 61 61 61 61 61 61 85 85 85 85 85 85 85 85 84 84 5
 5 5 69 61 61 61 61 61 61 61 61 61 61 61 85 85 85 85 85 85
 85 84 84 84 5 5 5 69 69 61 61 61 61 61 61 61 61 61 54 85
 85 85 85 85 85 85 84 84 84 84 5 5 17 17 17 61 61 61 61 61
 61 61 61 40 85 85 85 85 85 85 85 84 84 84 84 84 17 17 17 17
 24 24 61 61 61 40 40 40 40 85 85 85 85 85 85 84 84 84 84 84
 17 17 17 17 17 24 24 24 24 40 40 40 40 40 40 85 85 85 92 92
 92 84 84 84 84 17 17 17 17 17 24 24 24 24 24 40 40 40 98 90
 90 85 85 92 92 92 84 84 84 17 17 17 17 17 17 24 24 24 24 24
 73 73 73 73 73 90 90 90 2 2 2 2 2 17 17 17 17 17 17 17
 17 24 24 48 48 73 73 73 73 73 73 90 90 2 2 10 10 10 76 76
 76 17 17 17 17 17 52 52 52 48 73 73 73 73 73 73 73 73 10 10
 10 10 10 76 76 76 76 76 17 52 52 52 52 52 52 73 73 73 73 73
 73 73 73 73 10 10 10 10 76 76 76 76 76 52 52 52 52 52 52 52
 73 73 62 62 29 29 29 29 29 1 10 10 10 76 76 76 76 76 77 77
 52 52 52 52 52 73 62 62 62 29 29 29 29 1 1 1 1 10 76 76
 76 76 76 77 77 77 52 52 96 96 62 62 62 29 29 29 29 29 1 88
 88 88 88 88 76 76 76 76 77 77 77 96 96 96 96 96 96 29 29 29
 29 29 29 88 88 88 88 88 88 88 100 100 100 77 77 96 96 96 96 96
 96 96 29 29 29 29 29 88 88 88 88 88 88 88 88 88 57 57 96 96
 96 96 96 96 96 96 96 29 29 29 29 88 88 88 88 88 88 88 88 88
 57 57 57 57 96 96 96 96 96 96 96 96 96 29 72 72 72 88 88 88
 88 88 88 88 57 57 57 57 57 96 96 96 96 96 96 96 96 96 72 72
 72 72 88 88 88 88 88 88 88 57 57 57 12 12 28 28 96 96 96 96
 96 96 96 72 72 72 72 88 88 88 88 88 88 88 57 57 57 57 57 28
 28 58 96 96 96 61 61 61 72 72 72 88 88 88 88 88 88 88 88 101
 101 101 57 57 58 58 58 58 61 61 61 61 61 61 18 18 18 88 88 88
 88 88 88 88 88 101 101 101 61 61 61 61 61 61 61 61 61 61 61 18
 18 18 88 88 88 88 88 88 88 93 93 93 75 75 75 61 61 61 61 61
 61 61 61 61 18 18 18 85 85 88 88 88 88 93 93 93 93 75 75 75
 75 61 61 61 61 61 61 61 61 85 85 85 85 85 85 85 84 84 93 93
 93 93 75 75 75 75 61 61 61 61 61 61 61 61 85 85 85 85 85 85
 85 84 84 84 93 93 93 93 75 75 61 61 61 61 61 61 15 15 15 85
 85 85 85 85 85 85 84 84 84 84 5 5 93 75 61 61 61 61 61 61
 61 15 15 15 85 85 85 85 85 85 84 84 84 84 84 84 17 17 17 17
 61 61 61 61 61 61 61 61 40 85 85 85 85 85 85 84 84 84 84 84
 84 17 17 17 17 17 61 61 61 61 61 61 40 40 85 85 85 85 85 85
 84 84 84 84 84 17 17 17 17 17 24 24 24 61 61 40 40 40 98 90
 90 85 85 2 2 84 84 84 84 84 17 17 17 17 17 24 24 24 24 48
 48 40 98 98 90 90 90 2 2 2 2 84 84 84 17 17 17 17 17 17
 24 24 24 24 48 73 73 98 98 90 90 90 90 2 2 2 2 2 17 17
 17 17 17 17 17 17 48 48 48 48 73 73 73 98 73 73 90 90 2 2
 2 2 2 76 76 76 17 17 17 17 17 52 52 48 48 73 73 73 73 73
 73 90 90 2 2 2 2 76 76 76 76 76 76 17 17 52 52 52 73 73
 73 73 73 73 73 73 73 73 73 10 10 10 76 76 76 76 76 76 17 17
 52 52 52 52 73 73 73 62 62 73 73 73 73 73 1 10 10 76 76 76
 76 76 76 76 77 52 52 52 52 73 73 62 62 62 62 29 29 29 88 88
 88 88 88 76 76 76 76 76 77 77 77 96 96 96 96 73 62 62 62 62
 29 29 29 88 88 88 88 88 88 100 100 100 100 77 77 96 96 96 96 96
 96 96 62 62 29 29 29 29 88 88 88 88 88 88 100 100 100 100 77 77
 96 96 96 96 96 96 96 29 29 29 29 29 88 88 88 88 88 88 88 88
 100 100 27 27 96 96 96 96 96 96 96 96 96 29 29 72 88 88 88 88
 88 88 88 88 88 57 27 27 27 28 96 96 96 96 96 96 96 96 72 72
 72 72 88 88 88 88 88 88 88 57 57 57 57 57 28 28 96 96 96 96
 96 96 96 72 72 72 72 88 88 88 88 88 88 88 57 57 57 57 28 28
 28 28 96 96 96 96 96 96 72 72 72 72 88 88 88 88 88 88 88 57
 57 57 57 28 28 28 28 28 96 96 61 42 42 42 72 72 88 88 88 88
 88 88 88 88 101 101 101 57 28 28 28 28 28 61 61 61 61 42 42 42
 18 88 88 88 88 88 88 88 88 101 101 101 101 75 61 61 61 61 61 61
 61 61 42 42 42 18 18 88 88 88 88 88 88 88 93 93 93 93 75 75
 61 61 61 61 61 61 61 61 42 42 18 85 85 88 88 88 88 88 93 93
 93 93 93 75 75 75 61 61 61 61 61 61 61 42 42 85 85 85 85 85
 85 88 93 93 93 93 93 93 75 75 75 61 61 61 61 61 15 15 15 85
 85 85 85 85 85 85 84 84 93 93 93 93 93 75 75 75 61 61 61 61
 15 15 15 15 85 85 85 85 85 85 85 84 84 84 84 93 93 93 75 75
 61 61 61 61 61 15 15 15 15 85 85 85 85 85 85 84 84 84 84 84
 84 17 17 17 17 61 61 61 61 61 61 15 15 15 85 85 85 85 85 2
 84 84 84 84 84 84 17 17 17 17 17 61 61 48 61 48 48 15 15 85
 85 2 2 2 2 2 84 84 84 84 17 17 17 17 17 17 48 48 48 48
 48 48 98 98 90 90 2 2 2 2 2 84 84 84 84 17 17 17 17 17
 17 24 48 48 48 48 98 98 98 90 90 90 2 2 2 2 2 84 84 17
 17 17 17 17 17 17 24 48 48 48 98 98 98 98 98 90 90 90 2 2
 2 2 2 2 17 17 17 17 17 17 17 48 48 48 48 73 73 98 98 98
 90 90 90 2 2 2 2 2 76 76 76 17 17 17 17 17 48 48 48 73
 73 73 73 73 73 90 90 90 2 2 2 2 76 76 76 76 76 76 17 17
 17 52 52 73 73 73 73 73 73 73 73 73 73 73 2 2 2 76 76 76
 76 76 76 76 17 52 52 39 39 73 73 73 73 73 73 73 73 73 73 73
 10 76 76 76 76 76 76 76 76 77 52 39 39 39 73 73 73 62 62 62
 73 73 73 73 88 88 88 83 83 83 83 83 83 83 83 96 96 96 96 96
 73 62 62 62 62 73 73 73 88 88 88 88 88 100 100 100 100 100 100 77
 96 96 96 96 96 96 62 62 62 62 29 29 88 88 88 88 88 88 100 100
 100 100 100 100 96 96 96 96 96 96 96 96 62 29 29 29 88 88 88 88
 88 88 88 88 100 100 100 27 27 27 96 96 96 96 96 96 96 96 29 72
 72 88 88 88 88 88 88 88 88 88 100 27 27 27 28 28 96 96 96 96
 96 96 96 72 72 72 72 88 88 88 88 88 88 88 57 57 57 27 27 28
 28 28 96 96 96 96 96 96 72 72 72 72 88 88 88 88 88 88 88 57
 57 57 57 28 28 28 28 28 96 96 96 96 42 42 72 72 72 88 88 88
 88 88 88 88 57 57 57 57 28 28 28 28 28 28 96 42 42 42 42 42
 42 88 88 88 88 88 88 88 88 88 101 101 57 28 28 28 28 28 28 96
 42 42 42 42 42 42 88 88 88 88 88 88 88 88 88 101 101 93 28 28
 28 28 28 61 61 42 42 42 42 42 42 35 35 88 88 21 21 21 88 93
 93 93 93 75 75 61 61 61 61 61 61 42 42 42 42 42 35 35 35 88
 21 21 21 93 93 93 93 93 75 75 75 61 61 61 61 61 42 42 42 42
 42 35 35 35 35 21 21 21 93 93 93 93 93 75 75 75 61 61 44 61
 61 15 15 42 42 85 85 85 85 85 85 84 84 93 93 93 93 93 75 75
 75 61 61 61 61 15 15 15 15 86 85 85 85 85 85 85 84 84 84 93
 93 93 93 75 75 75 61 61 61 61 15 15 15 15 85 85 85 85 2 2
 2 84 84 84 84 84 17 17 17 17 61 61 61 61 61 48 15 15 15 2
 2 2 2 2 2 2 84 84 84 84 84 17 17 17 17 17 48 48 48 48
 48 48 48 2 2 2 2 2 2 2 2 84 84 84 84 17 17 17 17 17
 17 48 48 48 48 48 48 98 98 90 90 2 2 2 2 2 2 84 84 84
 17 17 17 17 17 17 48 48 48 48 48 98 98 98 90 90 90 2 2 2
 2 2 2 84 17 17 17 17 17 17 17 48 48 48 48 48 98 98 98 98
 90 90 2 2 2 2 2 2 2 17 17 17 17 17 17 17 48 48 48 48
 73 73 98 98 98 90 90 90 2 2 2 2 2 2 76 17 17 17 17 17
 17 48 48 48 73 73 73 73 73 73 90 90 90 2 2 2 2 2 76 76
 76 76 76 17 17 39 39 39 39 73 73 73 73 73 73 73 73 73 2 2
 2 2 2 76 76 76 83 83 83 83 39 39 39 39 73 73 73 73 73 73
 73 73 73 73 73 2 83 83 83 83 83 83 83 83 83 39 39 39 39 39
 73 73 73 73 73 73 73 73 73 73 88 83 83 83 83 83 83 83 83 83
 39 39 39 39 39 73 73 73 73 73 73 73 73 88 88 88 88 83 83 100
 100 100 83 83 83 96 96 96 96 96 96 96 62 62 73 73 73 88 88 88
 88 88 88 100 100 100 100 100 83 96 96 96 96 96 96 96 96 96 62 73
 73 88 88 88 88 88 88 88 88 100 100 100 27 27 27 96 96 96 96 96
 96 96 96 62 72 72 88 88 88 88 88 88 88 88 88 100 27 27 27 28
 28 28 96 96 96 96 96 96 72 72 72 88 88 88 88 88 88 88 88 88
 57 27 27 27 28 28 28 28 96 96 96 96 42 72 72 72 88 88 88 88
 88 88 88 88 88 57 57 27 28 28 28 28 28 28 96 42 42 42 42 42
 42 88 88 88 88 88 88 88 88 88 57 57 57 28 28 28 28 28 28 28
 42 42 42 42 42 42 42 88 88 88 88 88 88 88 88 101 101 57 28 28