# vtk DataFile Version 2.0
Data set from ImportExport Version 6.5.141.ec284b7a5
ASCII

DATASET RECTILINEAR_GRID
DIMENSIONS 26 26 26
X_COORDINATES 26 float
-3.000000 3.000000 9.000000 15.000000 21.000000 27.000000 33.000000 39.000000 45.000000 51.000000 57.000000 63.000000 69.000000 75.000000 81.000000 87.000000 93.000000 99.000000 105.000000 111.000000 117.000000 
123.000000 129.000000 135.000000 141.000000 147.000000 
Y_COORDINATES 26 float
-3.000000 3.000000 9.000000 15.000000 21.000000 27.000000 33.000000 39.000000 45.000000 51.000000 57.000000 63.000000 69.000000 75.000000 81.000000 87.000000 93.000000 99.000000 105.000000 111.000000 117.000000 
123.000000 129.000000 135.000000 141.000000 147.000000 
Z_COORDINATES 26 float
-3.000000 3.000000 9.000000 15.000000 21.000000 27.000000 33.000000 39.000000 45.000000 51.000000 57.000000 63.000000 69.000000 75.000000 81.000000 87.000000 93.000000 99.000000 105.000000 111.000000 117.000000 
123.000000 129.000000 135.000000 141.000000 147.000000 
CELL_DATA 15625
SCALARS FeatureIds int 1
LOOKUP_TABLE default
 68 68 74 74 74 74 74 74 74 74 8 8 8 8 8 8 8 8 8 68
 68 68 68 68 68 68 68 74 74 74 74 74 74 74 8 8 8 8 8 8
 8 8 8 8 68 68 68 68 68 68 68 68 74 74 74 74 74 74 74 8
 8 8 8 8 8 8 8 8 8 68 68 68 68 68 68 68 68 68 74 74
 74 74 74 74 8 8 8 8 8 8 8 8 8 53 53 31 31 68 68 68
 68 68 68 25 25 25 25 25 25 32 32 8 8 8 8 8 8 53 53 53
 31 31 31 31 68 68 68 25 25 25 25 25 25 25 32 32 32 32 32 8
 8 53 53 53 53 31 31 31 31 31 68 68 55 25 25 25 25 25 93 93
 93 93 93 18 18 18 53 53 53 53 31 31 31 31 31 39 39 39 25 25
 25 25 25 93 93 93 93 93 18 18 18 53 53 53 53 53 31 31 31 31
 39 39 39 39 25 25 25 93 93 93 93 93 93 18 18 18 53 53 53 53
 53 53 39 39 39 39 39 39 39 35 35 35 35 35 93 93 93 93 18 18
 18 53 53 53 53 53 39 39 39 39 39 39 39 38 35 35 35 35 35 58
 58 93 93 18 60 60 60 53 53 39 39 39 39 39 39 39 38 38 38 35
 35 35 35 35 35 58 58 93 18 60 60 60 60 39 39 39 39 39 39 39
 38 38 38 38 35 35 35 35 35 35 35 58 58 58 60 60 60 54 54 54
 54 54 39 39 39 38 38 38 38 35 35 35 35 35 35 35 35 35 35 60
 60 60 54 54 54 54 54 54 39 39 38 38 38 38 35 35 35 35 35 35
 35 35 35 33 33 33 33 33 15 54 54 54 54 2 38 2 38 38 38 35
 35 35 35 35 35 35 35 35 33 33 33 33 33 15 15 54 54 2 2 2
 2 2 2 2 35 35 35 35 35 40 40 40 40 33 33 33 85 85 85 15
 2 2 2 2 2 2 2 2 2 35 22 22 22 40 40 40 40 40 30 30
 85 85 85 85 85 2 2 2 2 2 2 2 2 2 22 22 22 22 40 40
 40 40 40 30 30 30 30 85 85 85 2 2 2 2 2 2 2 2 22 22
 22 22 22 40 40 40 40 40 30 30 30 30 30 30 85 2 2 2 2 2
 2 2 74 74 74 22 22 22 40 40 40 40 40 30 30 30 30 30 30 30
 2 2 2 2 2 2 74 74 74 74 74 74 22 40 40 40 40 34 34 30
 30 30 30 30 72 72 2 2 2 2 74 74 74 74 74 74 74 74 74 74
 40 40 8 8 8 8 8 8 8 72 72 68 68 68 68 68 74 74 74 74
 74 74 74 74 74 8 8 8 8 8 8 8 8 8 72 68 68 68 68 68
 68 74 74 74 74 74 74 74 74 74 8 8 8 8 8 8 8 8 8 68
 68 68 68 68 68 68 74 74 74 74 74 74 74 74 74 8 8 8 8 8
 8 8 8 8 68 68 68 68 68 68 68 68 74 74 74 74 74 74 74 8
 8 8 8 8 8 8 8 8 8 8 68 68 68 68 68 68 68 74 74 74
 74 74 74 74 8 8 8 8 8 8 8 8 8 53 53 68 68 68 68 68
 68 68 68 74 74 74 74 74 74 8 8 8 8 8 8 8 8 53 53 53
 53 68 68 68 68 68 68 55 55 25 25 25 25 25 8 8 8 8 93 8
 8 53 53 53 53 53 31 31 68 68 68 55 55 55 25 25 25 25 93 93
 93 93 93 93 8 8 53 53 53 53 53 31 31 31 31 68 55 55 55 55
 25 25 25 93 93 93 93 93 93 93 53 53 53 53 53 53 53 31 31 31
 39 91 55 55 55 25 25 25 93 93 93 93 93 18 18 53 53 53 53 53
 53 53 53 31 31 39 91 91 91 25 25 35 93 93 93 93 93 93 93 18
 53 53 53 53 53 53 53 53 39 39 39 91 91 91 35 35 35 35 35 93
 93 93 93 93 18 53 53 53 53 53 53 53 39 39 39 39 39 38 38 35
 35 35 35 35 35 35 93 93 93 60 60 53 53 53 53 53 39 39 39 39
 38 38 38 38 35 35 35 35 35 35 35 35 62 62 60 60 60 53 53 54
 54 54 54 39 39 38 38 38 38 35 35 35 35 35 35 35 35 62 62 62
 60 60 54 54 54 54 54 54 54 38 38 38 38 38 35 35 35 35 35 35
 35 35 35 62 62 33 33 54 54 54 54 54 54 54 38 38 38 38 38 35
 35 35 35 35 35 35 35 35 62 33 33 33 33 15 15 54 54 54 54 38
 38 38 38 38 35 35 35 35 35 35 35 35 35 33 33 33 33 33 15 15
 15 54 54 2 2 2 2 38 38 35 35 35 35 35 40 40 40 40 33 33
 33 33 85 15 15 15 2 2 2 2 2 2 2 2 22 22 22 22 40 40
 40 40 40 30 30 30 30 30 30 85 2 2 2 2 2 2 2 2 22 22
 22 22 22 40 40 40 40 40 30 30 30 30 30 30 85 2 2 2 2 2
 2 2 74 22 22 22 22 22 40 40 40 40 40 30 30 30 30 30 30 30
 2 2 2 2 2 2 74 74 74 74 22 22 22 40 40 40 40 34 34 30
 30 30 30 30 30 72 2 2 2 2 74 74 74 74 74 74 74 74 40 40
 40 40 34 34 34 30 30 30 30 72 72 72 72 2 2 74 74 74 74 74
 74 74 74 74 74 40 34 34 34 34 8 30 30 30 72 72 72 72 72 72
 74 74 74 74 74 74 74 74 74 74 8 8 8 8 8 8 8 8 72 72
 72 72 72 68 68 68 74 74 74 74 74 74 74 74 74 8 8 8 8 8
 8 8 8 72 72 72 72 68 68 68 68 74 74 74 74 74 74 74 74 74
 8 8 8 8 8 8 8 8 72 72 72 72 72 72 68 68 74 74 74 74
 74 74 74 74 74 8 8 8 8 8 8 8 8 8 72 72 72 68 68 68
 68 68 74 74 74 74 74 74 74 8 8 8 8 8 8 8 8 8 53 53
 53 68 68 68 68 68 55 55 55 55 74 74 74 74 8 8 8 8 8 8
 8 8 53 53 53 53 53 68 68 68 68 55 55 55 55 55 55 55 93 93
 93 8 8 93 8 8 53 53 53 53 53 53 53 68 68 55 55 55 55 55
 55 55 93 93 93 93 93 93 93 93 53 53 53 53 53 53 53 53 31 31
 55 55 55 55 55 55 55 93 93 93 93 93 93 93 93 53 53 53 53 53
 53 53 53 31 31 91 91 55 55 55 55 55 93 93 93 93 93 93 93 93
 53 53 53 53 53 53 53 53 53 91 91 91 91 91 55 35 35 93 93 93
 93 93 93 93 93 53 53 53 53 53 53 53 53 53 91 91 91 91 91 35
 35 35 35 35 93 93 93 93 93 93 53 53 53 53 53 53 53 53 39 39
 91 91 91 91 35 35 35 35 35 35 93 93 93 93 62 53 53 53 53 53
 53 53 53 39 39 38 38 38 38 35 35 35 35 35 35 35 35 62 62 62
 53 53 53 53 53 54 54 54 54 39 38 38 38 38 35 35 35 35 35 35
 35 35 62 62 62 62 53 54 54 54 54 54 54 54 38 38 38 38 38 35
 35 35 35 35 35 35 35 62 62 62 62 33 54 54 54 54 54 54 54 38
 38 38 38 38 35 35 35 35 35 35 35 35 62 62 62 33 33 33 15 54
 54 54 54 54 38 38 38 38 38 35 35 35 35 35 35 35 35 62 62 33
 33 33 33 15 15 54 54 54 54 2 2 2 38 38 35 35 35 35 35 40
 40 40 63 62 33 33 33 30 15 15 15 2 2 2 2 2 2 2 22 22
 22 22 22 40 40 40 40 40 30 30 30 30 30 30 15 15 2 2 2 2
 2 2 2 22 22 22 22 22 40 40 40 40 40 30 30 30 30 30 30 30
 2 2 2 2 2 2 2 74 74 74 22 22 22 40 40 40 40 34 34 30
 30 30 30 30 30 72 2 2 2 2 2 74 74 74 74 74 22 22 40 40
 40 40 34 34 34 30 30 30 30 72 72 72 72 72 2 74 74 74 74 74
 74 74 74 40 40 40 34 34 34 34 30 30 30 30 72 72 72 72 72 72
 74 74 74 74 74 74 74 74 74 74 40 34 34 34 34 34 30 30 72 72
 72 72 72 72 72 74 74 74 74 74 74 74 74 74 74 8 34 34 34 8
 8 8 72 72 72 72 72 72 72 72 74 74 74 74 74 74 74 74 74 74
 8 8 8 8 8 8 8 8 72 72 72 72 72 72 72 74 74 74 74 74
 74 74 74 74 74 8 8 8 8 8 8 8 8 72 72 72 72 72 72 72
 74 74 74 74 74 74 74 74 74 74 8 8 8 8 8 8 8 8 72 72
 72 72 72 72 72 55 55 55 74 74 74 74 74 74 8 8 8 8 8 8
 8 8 53 53 53 72 72 72 68 68 55 55 55 55 55 55 55 74 74 8
 8 8 8 8 8 8 53 53 53 53 53 53 53 68 68 55 55 55 55 55
 55 55 55 55 93 93 8 8 8 8 53 53 53 53 53 53 53 53 53 68
 55 55 55 55 55 55 55 55 93 93 93 93 93 93 93 53 53 53 53 53
 53 53 53 53 53 55 55 55 55 55 55 55 55 93 93 93 93 93 93 93
 53 53 53 53 53 53 53 53 53 91 91 91 55 55 55 55 55 55 93 93
 93 93 93 93 93 53 53 53 53 53 53 53 53 53 91 91 91 91 91 55
 55 35 35 93 93 93 93 93 93 93 53 53 53 53 53 53 53 53 50 91
 91 91 91 91 91 35 35 35 35 93 93 93 93 93 53 53 53 53 53 53
 53 53 53 50 91 91 91 91 91 35 35 35 35 35 35 13 13 93 62 62
 62 53 53 53 53 53 53 53 50 91 91 91 91 91 35 35 35 35 35 35
 13 13 62 62 62 62 62 53 53 53 53 53 53 54 91 38 38 38 38 35
 35 35 35 35 35 35 35 62 62 62 62 62 79 79 79 54 54 54 54 38
 38 38 38 38 35 35 35 35 35 35 35 35 62 62 62 62 79 79 79 79
 54 54 54 54 38 38 38 38 38 35 35 35 35 35 35 35 62 62 62 62
 62 33 79 79 79 54 54 54 54 38 38 38 38 38 35 35 35 35 35 35
 35 62 62 62 62 62 33 33 79 79 54 54 54 54 2 38 38 38 38 35
 35 35 35 35 40 40 63 63 63 63 63 30 30 15 15 15 54 2 2 2
 2 2 2 22 22 22 22 22 40 40 40 40 63 63 63 30 30 30 30 15
 15 2 2 2 2 2 2 74 22 22 22 22 22 40 40 40 40 34 63 30
 30 30 30 30 30 72 2 2 2 2 2 74 74 74 74 22 22 22 40 40
 40 40 34 34 34 30 30 30 30 30 72 72 72 72 72 74 74 74 74 74
 74 22 22 40 40 40 34 34 34 34 30 30 30 30 72 72 72 72 72 72
 74 74 74 74 74 74 74 74 40 40 40 34 34 34 34 34 30 30 72 72
 72 72 72 72 72 72 74 74 74 74 74 74 74 74 74 34 34 34 34 34
 34 34 72 72 72 72 72 72 72 72 72 74 74 74 74 74 74 74 74 74
 34 34 34 34 34 34 34 72 72 72 72 72 72 72 72 72 74 74 74 74
 74 74 74 74 74 8 8 8 8 8 8 8 72 72 72 72 72 72 72 72
 74 74 74 74 74 74 74 74 74 74 8 8 8 8 8 8 8 72 72 72
 72 72 72 72 72 74 74 74 74 74 74 74 74 74 14 8 8 8 8 8
 8 8 72 72 72 72 72 72 72 72 55 55 55 55 55 55 74 74 74 8
 8 8 8 8 8 8 8 53 72 72 72 72 72 72 72 55 55 55 55 55
 55 55 55 55 14 8 8 8 8 8 8 53 53 53 53 53 72 72 72 72
 55 55 55 55 55 55 55 55 55 83 83 83 83 83 83 53 53 53 53 53
 53 53 53 53 68 55 55 55 55 55 77 77 77 77 83 83 83 83 83 83
 53 53 53 53 53 53 53 53 53 91 55 55 55 55 55 55 55 55 55 93
 93 83 83 83 83 53 53 53 53 53 53 53 53 53 91 91 91 55 55 55
 55 55 55 55 93 93 83 83 83 83 53 53 53 53 53 53 53 53 50 91
 91 91 91 91 55 55 55 55 13 93 93 93 83 83 83 53 53 53 53 53
 53 53 53 50 91 91 91 91 91 91 91 35 35 13 13 13 56 56 83 83
 53 53 53 53 53 53 53 50 50 50 91 91 91 91 91 35 35 35 13 13
 13 13 56 62 62 62 53 53 53 53 53 53 50 50 91 91 91 91 91 35
 35 35 35 13 13 13 13 62 62 62 62 62 79 79 79 53 53 50 50 91
 38 91 38 38 35 35 35 35 13 13 13 49 62 62 62 62 62 79 79 79
 79 79 54 54 91 38 38 38 38 35 35 35 35 35 49 49 49 62 62 62
 62 62 79 79 79 79 79 54 54 38 38 38 38 38 35 35 35 35 35 49
 49 62 62 62 62 62 64 79 79 79 79 79 54 54 38 38 38 38 92 35
 35 35 35 35 49 49 62 62 62 62 62 64 64 79 79 79 79 54 54 92
 92 38 92 92 16 35 35 35 35 40 49 63 63 63 63 63 64 64 79 79
 79 79 2 2 2 92 2 16 16 16 16 22 22 40 40 40 63 63 63 63
 63 30 30 64 64 64 72 2 2 2 2 16 16 16 16 16 16 22 40 40
 40 63 63 63 63 30 30 30 30 30 72 72 72 72 2 16 16 16 16 16
 16 16 16 40 40 40 34 34 34 34 30 30 30 30 72 72 72 72 72 72
 72 16 16 16 16 16 16 16 40 40 40 34 34 34 34 34 30 30 30 72
 72 72 72 72 72 72 74 74 16 16 16 16 16 16 40 34 34 34 34 34
 34 30 30 72 72 72 72 72 72 72 72 74 74 74 74 74 74 74 16 16
 34 34 34 34 34 34 34 72 72 72 72 72 72 72 72 72 74 74 74 74
 74 74 74 74 74 34 34 34 34 34 34 34 72 72 72 72 72 72 72 72
 72 74 74 74 74 74 74 74 74 74 34 34 34 34 8 8 8 72 72 72
 72 72 72 72 72 74 74 74 16 16 16 16 16 16 14 14 14 8 8 8
 8 72 72 72 72 72 72 72 72 72 20 55 55 55 74 74 16 16 14 14
 14 14 8 8 8 8 72 72 72 72 72 72 72 72 72 20 55 55 55 55
 55 55 55 14 14 14 14 14 8 8 8 8 72 72 72 72 72 72 72 72
 55 55 55 55 55 55 55 55 14 14 14 14 83 83 83 83 53 53 53 53
 72 72 72 72 72 55 55 55 55 55 77 77 77 77 83 83 83 83 83 83
 83 53 53 53 53 53 53 53 53 72 55 55 55 55 55 77 77 77 83 83
 83 83 83 83 83 83 53 53 53 53 53 53 53 53 91 55 55 55 55 55
 77 77 77 83 83 83 83 83 83 83 83 53 53 53 53 53 53 53 50 91
 91 91 55 55 55 55 77 77 83 83 83 83 83 83 83 83 53 53 53 53
 53 53 53 50 91 91 91 91 91 55 55 77 13 13 13 83 83 83 83 83
 83 53 53 53 53 53 53 50 50 50 91 91 91 91 91 91 13 13 13 13
 13 56 56 83 83 83 53 53 53 53 53 53 50 50 50 91 91 91 91 91
 91 13 13 13 13 13 56 56 56 83 83 53 53 53 53 53 53 50 50 50
 91 91 91 91 91 35 49 13 13 13 13 13 62 62 62 62 64 64 79 79
 79 53 50 50 91 91 91 91 91 91 35 49 49 13 13 13 49 62 62 62
 62 64 79 79 79 79 79 79 50 91 92 92 92 92 35 35 49 49 49 49
 49 49 62 62 62 62 64 79 79 79 79 79 79 54 92 92 92 92 92 35
 35 49 49 49 49 49 49 62 62 62 62 64 64 79 79 79 79 79 92 92
 92 92 92 92 92 35 49 49 49 49 49 49 62 62 62 64 64 64 64 79
 79 79 79 92 92 92 92 92 92 16 16 16 49 49 49 49 63 63 63 63
 63 64 64 64 64 64 64 64 92 92 92 92 16 16 16 16 16 16 16 40
 40 63 63 63 63 63 64 64 64 64 64 64 72 92 92 16 16 16 16 16
 16 16 16 16 16 40 63 63 63 63 63 30 64 64 64 72 72 72 72 72
 16 16 16 16 16 16 16 16 16 16 40 63 63 63 63 63 30 30 30 72
 72 72 72 72 72 72 16 16 16 16 16 16 16 16 16 40 34 34 34 34
 34 30 30 72 72 72 72 72 72 72 72 16 16 16 16 16 16 16 16 16
 34 34 34 34 34 34 30 72 72 72 72 72 72 72 72 72 16 16 16 16
 16 16 16 16 16 34 34 34 34 34 34 34 72 72 72 72 72 72 72 72
 72 16 16 16 16 16 16 16 16 16 34 34 34 34 34 34 34 72 72 72
 72 72 72 72 72 72 72 16 16 16 16 16 16 16 16 14 34 34 34 8
 34 72 72 72 72 72 72 72 72 72 20 16 16 16 16 16 16 16 16 14
 14 14 14 8 29 29 72 72 72 72 72 72 72 72 72 20 20 55 16 16
 16 16 16 14 14 14 14 14 8 8 8 72 72 72 72 72 72 72 72 72
 20 20 55 55 55 55 55 16 14 14 14 14 14 8 83 83 78 78 78 78
 72 72 72 72 72 20 20 55 55 55 55 55 55 14 14 14 14 83 83 83
 83 83 78 78 78 78 78 72 72 72 20 55 55 55 55 55 55 55 83 83
 83 83 83 83 83 83 83 53 78 78 78 78 78 70 70 55 55 55 55 55
 77 77 77 83 83 83 83 83 83 83 83 83 53 53 53 53 53 53 70 70
 55 55 55 55 55 55 55 55 83 83 83 83 83 83 83 83 83 53 53 53
 53 53 53 70 91 91 91 55 55 55 55 55 55 83 83 83 83 83 83 83
 83 83 53 53 53 53 53 53 50 91 91 91 91 91 55 55 55 49 56 56
 56 56 56 83 83 83 83 53 53 53 53 53 50 50 91 91 91 91 91 91
 91 49 49 56 56 56 56 56 83 83 83 83 53 53 53 53 53 50 50 91
 91 91 91 91 91 49 49 49 13 13 56 56 56 56 83 83 83 64 53 53
 53 53 50 50 91 91 91 91 91 91 49 49 49 13 13 13 49 56 56 62
 64 64 64 64 79 79 79 50 50 91 92 92 92 92 92 49 49 49 49 49
 49 49 49 62 62 64 64 64 79 79 79 79 79 92 92 92 92 92 92 92
 49 49 49 49 49 49 49 49 62 62 64 64 64 79 79 79 79 79 92 92
 92 92 92 92 92 49 49 49 49 49 49 49 49 62 62 64 64 64 64 79
 79 79 79 92 92 92 92 92 92 92 67 49 49 49 49 49 49 63 63 64
 64 64 64 64 64 64 64 64 92 92 92 92 92 92 67 67 67 49 49 49
 49 63 63 63 63 64 64 64 64 64 64 64 64 92 92 92 92 92 16 16
 16 16 16 16 49 49 63 63 63 63 63 64 64 64 64 64 64 64 92 92
 92 16 16 16 16 16 16 16 16 16 16 63 63 63 63 63 64 64 64 64
 64 64 72 92 92 16 16 16 16 16 16 16 16 16 16 16 63 63 63 63
 63 30 82 82 82 72 46 46 46 72 16 16 16 16 16 16 16 16 16 16
 16 34 34 34 34 34 30 82 72 72 46 46 46 72 72 72 16 16 16 16
 16 16 16 16 16 16 34 34 34 34 34 72 72 72 72 72 46 72 72 72
 72 16 16 16 16 16 16 16 16 16 16 34 34 34 34 34 72 72 72 72
 72 72 72 72 72 72 16 16 16 16 16 16 16 16 16 14 29 29 29 34
 34 72 72 72 72 72 72 72 72 72 72 16 16 16 16 16 16 16 16 16
 14 14 14 29 29 34 72 72 72 72 72 72 72 72 72 20 16 16 16 16
 16 16 16 14 14 14 14 14 29 29 29 29 72 72 72 72 72 72 72 72
 20 20 20 16 16 16 16 16 14 14 14 14 14 14 29 29 78 78 78 78
 72 72 72 72 72 20 20 20 55 55 55 16 14 14 14 14 14 14 14 83
 83 78 78 78 78 78 78 72 72 72 20 20 20 55 55 55 55 14 14 14
 14 14 14 83 83 83 78 78 78 78 78 78 78 72 70 20 20 55 55 55
 55 55 55 83 83 83 83 83 83 83 83 83 78 78 78 78 78 78 70 70
 70 55 55 55 55 55 77 77 83 83 83 83 83 83 83 83 83 78 78 78
 78 78 70 70 70 70 70 55 55 55 55 55 55 83 83 83 83 83 83 83
 83 83 83 53 53 53 53 70 70 70 70 70 70 55 55 55 55 55 83 83
 83 83 83 83 83 83 83 83 53 53 53 53 70 70 70 91 91 91 70 70
 70 55 49 56 56 56 56 83 83 83 83 83 83 53 53 53 53 70 70 70
 91 91 91 91 70 70 49 49 56 56 56 56 56 83 83 83 83 83 53 53
 53 53 50 50 91 91 91 91 91 91 49 49 49 49 49 56 56 56 83 83
 83 83 64 64 64 64 53 50 50 91 91 91 91 91 91 49 49 49 49 49
 49 56 56 83 83 64 64 64 64 64 64 64 64 50 91 92 92 92 92 92
 49 49 49 49 49 49 49 49 62 64 64 64 64 64 64 64 64 64 92 92
 92 92 92 92 92 92 49 49 49 49 49 49 49 64 64 64 64 64 64 64
 64 64 64 92 92 92 92 92 92 92 67 49 49 49 49 49 49 49 64 64
 64 64 64 64 64 64 64 64 92 92 92 92 92 92 92 67 67 49 49 49
 49 49 49 64 64 64 64 64 64 64 64 64 64 92 92 92 92 92 92 67
 67 67 49 49 49 49 49 63 63 64 64 64 64 64 64 64 64 64 92 92
 92 92 92 16 67 67 67 16 49 49 49 63 63 63 63 64 64 64 64 64
 64 64 64 92 92 92 16 16 16 16 16 16 16 16 16 16 63 63 63 63
 64 64 64 64 82 82 82 64 92 92 92 16 16 16 16 16 16 16 16 16
 16 63 63 63 63 64 64 82 82 82 82 46 46 46 72 16 16 16 16 16
 16 16 16 16 16 16 34 34 29 34 34 82 82 82 82 46 46 46 46 72
 16 16 16 16 16 16 16 16 16 16 16 29 29 29 29 29 86 86 72 72
 46 46 46 72 72 72 16 16 16 16 16 16 16 16 16 16 29 29 29 29
 29 29 72 72 72 72 46 72 72 72 72 16 16 16 16 16 16 16 16 16
 14 29 29 29 29 29 29 72 72 72 72 72 72 72 72 72 16 16 16 16
 16 16 16 16 14 14 14 29 29 29 29 29 72 72 72 72 72 72 72 72
 20 16 16 16 16 16 16 16 14 14 14 14 14 29 29 29 29 78 72 72
 72 72 72 72 72 20 20 20 16 16 16 16 14 14 14 14 14 14 14 14
 29 78 78 78 78 78 72 72 72 72 20 20 20 20 55 16 16 14 14 14
 14 14 14 14 14 14 78 78 78 78 78 78 72 72 70 20 20 20 55 55
 28 28 14 14 14 14 14 14 14 83 83 83 78 78 78 78 78 78 70 70
 70 20 70 55 55 28 28 28 83 83 83 83 83 83 83 83 83 78 78 78
 78 78 78 70 70 70 70 70 70 28 28 28 28 83 83 83 83 83 83 83
 83 83 78 78 78 78 78 70 70 70 70 70 70 70 70 28 28 28 83 83
 83 83 83 83 83 83 83 83 53 78 78 78 70 70 70 70 70 70 70 70
 70 70 70 83 83 83 83 83 83 83 83 83 83 53 53 53 70 70 70 70
 70 70 70 70 70 70 70 70 56 56 56 83 83 83 83 83 83 83 53 53
 53 70 70 70 70 70 70 70 70 70 70 70 49 56 56 56 56 83 83 83
 83 83 83 83 53 53 70 70 70 70 70 70 70 70 70 70 49 49 49 56
 56 56 83 83 83 83 83 64 64 64 64 64 70 70 70 92 92 92 92 92
 49 49 49 49 49 49 49 83 83 83 64 64 64 64 64 64 80 80 92 92
 92 92 92 92 92 92 49 49 49 49 49 49 49 64 64 64 64 64 64 64
 64 80 80 92 92 92 92 92 92 92 92 49 49 49 49 49 49 49 64 64
 64 64 64 64 64 64 80 80 92 92 92 92 92 92 92 67 49 49 49 49
 49 49 49 64 64 64 64 64 64 64 64 80 80 92 92 92 92 92 92 67
 67 67 49 49 49 49 49 49 64 64 64 64 64 64 64 64 64 92 92 92
 92 92 92 92 67 67 67 67 49 49 49 49 49 64 64 64 64 64 64 64
 64 64 92 92 92 92 92 92 67 67 67 67 67 49 49 49 49 63 63 64
 64 64 64 64 64 64 64 92 92 92 92 92 92 16 67 67 67 16 16 16
 16 27 63 63 64 64 64 64 82 82 82 82 92 92 92 92 16 16 16 16
 16 16 16 16 16 16 10 10 29 29 64 64 82 82 82 82 82 46 92 92
 16 16 16 16 16 16 16 16 16 16 16 29 29 29 29 34 86 86 82 82
 82 46 46 46 72 16 16 16 16 16 16 16 16 16 16 16 29 29 29 29
 29 86 86 86 82 46 46 46 72 72 16 16 16 16 16 16 16 16 16 16
 16 29 29 29 29 29 86 86 86 72 46 46 72 72 72 72 16 16 16 16
 16 16 16 16 16 14 29 29 29 29 29 29 72 72 72 72 72 72 72 72
 16 16 16 16 16 16 16 16 16 14 14 14 29 29 29 29 29 72 72 72
 72 72 72 72 72 20 16 16 16 16 16 16 16 14 14 14 14 14 29 29
 29 29 78 21 21 21 21 21 72 72 20 20 16 16 16 16 16 14 14 14
 14 14 14 14 14 29 78 78 78 78 78 78 72 72 72 20 20 20 20 16
 16 16 14 14 14 14 14 14 14 14 14 78 78 78 78 78 78 78 78 70
 70 70 70 70 28 28 28 14 14 14 14 14 14 14 83 83 78 78 78 78
 78 78 78 78 70 70 70 70 70 28 28 28 28 83 83 83 83 83 83 83
 83 83 78 78 78 78 78 78 70 70 70 70 70 70 28 28 28 28 83 83
 83 83 83 83 83 83 83 78 78 78 78 78 70 70 70 70 70 70 70 70
 28 28 28 83 83 83 83 83 83 83 83 83 83 78 78 78 78 70 70 70
 70 70 70 70 70 70 70 70 83 83 83 83 83 83 83 83 83 83 83 78
 78 70 70 70 70 70 70 70 70 70 70 70 70 83 83 83 83 83 83 83
 83 83 83 83 53 53 70 70 70 70 70 70 70 70 70 70 70 49 83 83
 83 83 83 83 83 83 83 83 83 64 64 70 70 70 70 70 70 70 70 70
 70 49 49 49 49 56 56 83 83 83 83 83 64 64 64 64 64 70 70 70
 92 92 92 92 92 49 49 49 49 49 49 49 83 83 83 83 64 64 64 64
 64 80 80 92 92 92 92 92 92 92 92 49 49 49 49 49 49 49 83 64
 64 64 64 64 64 64 80 80 92 92 92 92 92 92 92 92 49 49 49 49
 49 49 49 64 64 64 64 64 64 64 80 80 80 92 92 92 92 92 92 92
 67 67 49 49 49 49 49 49 64 64 64 64 64 64 64 64 80 80 92 92
 92 92 92 92 92 67 67 67 49 49 49 49 49 64 64 64 64 64 64 64
 64 64 92 92 92 92 92 92 92 67 67 67 67 49 49 27 27 27 64 64
 64 64 64 64 64 64 64 92 92 92 92 92 92 92 67 67 67 67 27 27
 27 27 27 27 64 64 64 64 64 64 64 64 92 92 92 92 92 92 67 67
 67 67 16 16 27 27 27 27 27 64 64 64 64 82 82 82 82 92 92 92
 92 16 16 16 16 67 16 16 16 10 10 10 10 10 29 64 64 82 82 82
 82 82 92 92 92 92 16 16 16 16 16 16 16 16 10 10 10 10 29 29
 64 86 86 82 82 82 82 46 46 92 16 16 16 16 16 16 16 16 16 10
 10 10 29 29 29 29 86 86 86 82 82 46 46 72 72 16 16 16 16 16
 16 16 16 16 10 10 29 29 29 29 29 86 86 86 72 72 72 72 72 72
 16 16 16 16 16 16 16 16 16 14 14 29 29 29 29 29 29 86 86 21
 21 21 21 72 72 16 16 16 16 16 16 16 16 14 14 14 14 29 29 29
 29 29 86 72 21 21 21 21 72 72 73 73 16 16 16 16 16 14 14 14
 14 14 14 29 29 29 29 78 21 21 21 21 21 21 21 73 73 73 16 16
 16 59 14 14 14 14 14 14 14 14 29 78 78 78 78 78 78 21 21 70
 70 70 70 70 28 28 59 14 14 14 14 14 14 14 14 14 78 78 78 78
 78 78 78 70 70 70 70 70 70 28 28 28 14 14 14 14 14 14 14 83
 83 78 78 78 78 78 78 78 70 70 70 70 70 70 28 28 28 28 83 83
 83 83 83 83 83 83 83 78 78 78 78 78 70 70 70 70 70 70 70 28
 28 28 28 83 83 83 83 83 83 83 83 83 78 78 78 78 78 70 70 70
 70 70 70 70 70 28 28 28 83 83 83 83 83 83 83 83 83 83 78 78
 78 70 70 70 70 70 70 70 70 70 70 70 70 83 83 83 83 83 83 83
 83 83 83 83 78 70 70 70 70 70 70 70 70 70 70 70 70 17 17 17
 83 83 83 83 83 83 83 83 83 83 70 70 70 70 70 70 70 70 70 70
 70 70 17 17 17 83 83 83 83 83 83 83 83 83 64 64 70 70 70 70
 70 70 70 70 70 70 70 17 17 17 83 83 83 83 83 83 83 64 64 64
 64 64 70 70 70 92 92 92 92 92 92 49 49 49 49 49 83 83 83 83
 83 64 64 64 64 64 80 70 70 70 92 92 92 92 92 92 49 49 49 49
 49 49 37 37 64 64 64 64 64 64 64 80 80 92 92 92 92 92 92 92
 92 49 49 49 49 49 49 37 37 64 64 64 64 64 64 64 80 80 92 92
 92 92 92 92 92 92 67 49 49 49 49 27 27 37 64 64 64 64 64 64
 64 80 80 92 92 92 92 92 92 92 67 67 67 49 27 27 27 27 27 64
 64 64 64 64 64 64 64 92 92 92 92 92 92 92 67 67 67 67 27 27
 27 27 27 27 64 64 64 64 64 64 64 64 92 92 92 92 92 92 92 67
 67 67 67 27 27 27 27 27 27 64 64 64 64 64 64 64 64 92 92 92
 92 92 92 67 67 67 67 67 27 27 27 27 27 27 64 64 64 64 82 82
 82 82 92 92 92 92 92 92 16 67 67 67 16 16 10 10 10 10 10 10
 64 64 82 82 82 82 82 82 92 92 92 16 16 16 16 16 16 16 16 10
 10 10 10 10 29 64 86 86 82 82 82 82 82 92 92 16 16 16 16 16
 16 16 16 16 10 10 10 10 29 29 29 86 86 86 82 82 82 46 72 92
 16 16 16 16 16 16 16 16 16 10 10 10 10 29 29 29 86 86 86 21
 21 21 21 72 72 16 16 16 16 16 16 16 16 16 10 10 10 29 29 29
 29 29 86 86 21 21 21 21 72 72 73 16 16 16 16 16 16 16 14 14
 14 14 29 29 29 29 29 86 21 21 21 21 21 72 72 73 73 73 16 16
 59 59 59 14 14 14 14 14 14 29 29 29 78 21 21 21 21 21 73 73
 73 73 73 73 16 59 59 59 14 14 14 14 14 14 14 14 78 78 78 78
 78 78 21 73 73 70 73 70 70 28 59 59 59 14 14 14 14 14 14 14
 14 78 78 78 78 78 78 78 70 70 70 70 70 70 70 70 28 59 14 14
 14 14 14 14 83 83 78 78 78 78 78 78 78 70 70 70 70 70 70 70
 70 28 28 44 83 83 83 83 83 83 83 83 78 78 78 78 78 70 70 70
 70 70 70 70 70 70 28 28 44 44 83 83 83 83 83 83 83 95 78 78
 78 78 70 70 70 70 70 70 70 70 70 70 70 83 83 83 83 83 83 83
 83 83 83 78 78 78 70 70 70 70 70 70 70 70 70 70 70 70 83 83
 83 83 83 83 83 83 83 83 83 78 70 70 70 70 70 70 70 70 70 70
 70 70 17 17 17 83 83 83 83 83 83 83 83 83 83 70 70 70 70 70
 70 70 70 70 70 70 70 17 17 17 17 83 83 83 83 83 83 83 83 64
 64 70 70 70 70 70 70 70 70 70 70 26 17 17 17 17 83 83 83 83
 83 83 64 64 64 64 70 70 70 70 70 70 70 70 70 26 26 26 49 49
 17 37 37 37 83 83 64 64 64 64 64 70 70 70 70 92 92 92 92 92
 92 26 49 49 49 49 37 37 37 37 64 64 64 64 64 64 64 80 92 92
 92 92 92 92 92 92 92 49 49 49 37 37 37 37 37 64 64 64 64 64
 64 64 64 92 92 92 92 92 92 92 92 67 49 27 27 27 27 37 37 37
 64 64 64 64 64 64 64 92 92 92 92 92 92 92 92 92 67 67 27 27
 27 27 27 27 37 64 64 64 64 64 64 64 92 92 92 92 92 92 92 92
 67 67 67 27 27 27 27 27 27 27 64 64 64 64 64 64 64 92 92 92
 92 92 92 92 67 67 67 67 27 27 27 27 27 27 27 64 64 64 64 64
 64 64 92 92 92 92 92 92 92 67 67 67 67 27 27 27 27 27 27 27
 64 64 64 82 82 82 82 92 92 92 92 92 92 92 67 67 67 16 27 27
 10 10 10 10 10 64 64 82 82 82 82 82 82 92 92 92 92 16 16 16
 16 16 16 10 10 10 10 10 10 10 10 86 82 82 82 82 82 82 69 92
 92 92 16 16 16 16 16 16 10 10 10 10 10 29 29 29 86 86 82 82
 82 82 82 69 92 16 16 16 16 16 16 16 16 10 10 10 10 10 29 29
 29 86 86 86 82 21 21 21 72 72 73 16 16 16 16 16 16 16 10 10
 10 10 10 29 29 29 29 86 86 21 21 21 21 21 73 73 73 73 16 16
 16 59 59 59 14 14 14 29 29 29 29 29 29 21 21 21 21 21 21 73
 73 73 73 73 59 59 59 59 59 14 14 14 14 14 29 29 57 57 57 57
 57 21 73 73 73 73 73 73 73 59 59 59 59 59 14 14 14 14 14 14
 14 87 57 57 57 57 57 73 73 73 73 73 73 73 59 59 59 59 59 14
 14 14 14 14 14 87 87 78 57 57 57 78 78 73 73 73 73 73 70 70
 59 59 59 44 14 14 14 14 14 83 83 95 78 78 78 78 78 52 70 70
 70 70 70 70 70 70 70 44 44 44 44 83 83 83 83 83 95 95 95 78
 78 78 52 52 70 70 70 70 70 70 70 70 44 44 44 44 83 83 83 83
 83 95 95 95 95 78 52 52 52 70 70 70 70 70 70 70 70 44 44 44
 44 83 83 83 83 83 95 95 95 95 87 52 52 70 70 70 70 70 70 70
 70 70 70 44 83 83 83 83 83 83 83 83 83 95 87 70 70 70 70 70
 70 70 70 70 70 70 70 17 17 17 83 83 83 83 83 83 83 83 83 87
 70 70 70 70 70 70 70 70 70 70 70 26 26 17 17 17 83 83 83 83
 83 83 83 41 41 41 70 70 70 70 70 70 70 70 70 26 26 26 17 17
 17 83 83 83 83 83 83 41 41 41 41 41 70 70 70 70 70 70 70 26
 26 26 26 26 17 17 37 37 37 37 37 41 41 41 41 41 41 41 70 70
 92 92 92 92 26 26 26 26 26 37 37 37 37 37 37 37 64 41 41 41
 41 41 41 41 92 92 92 92 92 92 26 26 26 26 37 37 37 37 37 37
 37 64 64 41 41 41 41 41 92 92 92 92 92 92 92 92 26 11 27 27
 27 37 37 37 37 37 64 64 64 41 41 41 41 92 92 92 92 92 92 92
 92 67 27 27 27 27 27 27 37 37 64 64 64 64 64 64 41 92 92 92
 92 92 92 92 92 92 67 27 27 27 27 27 27 27 27 64 48 48 48 64
 64 64 92 92 92 92 92 92 92 92 67 67 27 27 27 27 27 27 27 27
 48 48 48 48 64 64 64 92 92 92 92 92 92 92 92 67 67 27 27 27
 27 27 27 27 27 48 48 48 48 48 82 82 69 69 92 92 92 92 92 67
 67 67 27 27 27 27 27 27 27 27 48 48 48 82 82 82 82 69 69 69
 92 92 92 16 16 16 16 16 10 10 10 10 10 10 10 1 48 82 82 82
 82 82 69 69 69 92 92 16 16 16 16 16 16 10 10 10 10 10 10 10
 10 86 86 82 82 82 82 69 69 69 73 16 16 16 16 16 16 16 10 10
 10 10 10 10 29 29 86 86 86 82 21 21 21 69 73 73 73 73 16 16
 16 59 59 10 10 10 10 10 10 29 29 29 86 86 21 21 21 21 73 73
 73 73 73 73 59 59 59 59 59 10 10 10 10 29 29 29 29 29 57 57
 21 21 21 73 73 73 73 73 73 59 59 59 59 59 59 14 14 14 14 29
 87 87 57 57 57 57 57 73 73 73 73 73 73 73 59 59 59 59 59 14
 14 14 14 14 14 87 87 57 57 57 57 57 73 73 73 73 73 73 73 59
 59 59 59 59 59 14 14 14 14 87 87 87 87 57 57 57 57 81 73 73
 73 73 73 73 59 59 59 59 59 59 44 44 14 14 87 87 87 87 87 87
 87 81 81 81 73 70 70 70 70 70 59 59 44 44 44 44 44 83 83 83
 87 95 95 95 87 87 52 52 52 52 70 70 70 70 70 70 70 44 44 44
 44 44 83 83 83 87 95 95 95 87 87 52 52 52 52 70 70 70 70 70
 70 70 44 44 44 44 83 83 83 83 87 95 95 95 87 87 52 52 52 70
 70 70 70 70 70 70 70 70 44 44 83 83 83 83 83 83 87 87 87 87
 87 70 70 70 70 70 70 70 70 70 70 26 26 17 17 83 83 83 83 83
 83 83 87 87 87 41 70 70 70 70 70 70 70 70 70 26 26 26 17 17
 17 83 83 83 83 83 83 41 41 41 41 41 70 70 70 70 70 70 70 26
 26 26 26 26 17 17 37 37 37 37 83 41 41 41 41 41 41 41 70 70
 70 70 70 26 26 26 26 26 26 26 37 37 37 37 37 37 41 41 41 41
 41 41 41 70 70 92 92 92 26 26 26 26 26 26 37 37 37 37 37 37
 37 41 41 41 41 41 41 41 41 92 92 92 92 92 26 26 26 26 26 37
 37 37 37 37 37 37 41 41 41 41 41 41 41 41 92 92 92 92 92 92
 26 11 11 27 27 27 37 37 37 37 37 41 41 41 41 41 41 41 92 92
 92 92 92 92 92 92 11 11 27 27 27 27 27 37 37 37 48 41 41 41
 41 41 41 92 92 92 92 92 92 92 92 11 11 27 27 27 27 27 27 27
 48 48 48 48 41 41 41 41 92 92 92 92 92 92 92 67 11 27 27 27
 27 27 27 27 27 48 48 48 48 48 41 41 92 92 92 92 92 92 92 92
 67 27 27 27 27 27 27 27 27 27 1 48 48 48 48 41 69 69 69 69
 92 92 92 92 90 67 27 27 27 27 27 27 27 27 1 1 1 48 48 48
 82 69 69 69 69 92 92 92 90 90 16 27 27 27 27 27 10 10 10 1
 1 1 1 48 82 82 69 69 69 69 92 90 90 90 16 16 16 94 94 10
 10 10 10 10 10 1 1 1 82 82 82 69 69 69 69 73 73 16 16 16
 59 59 94 94 94 10 10 10 10 29 29 1 1 57 57 57 69 69 73 73
 73 73 73 73 73 59 59 59 94 94 94 10 10 10 29 29 29 57 57 57
 57 21 73 73 73 73 73 73 73 73 59 59 59 59 94 94 10 10 29 29
 29 29 57 57 57 57 21 73 73 73 73 73 73 73 73 59 59 59 59 94
 94 94 94 14 87 87 87 57 57 57 57 57 73 73 73 73 73 73 73 73
 59 59 59 59 65 65 94 14 14 87 87 87 57 57 57 57 81 73 73 73
 73 73 73 73 73 73 59 59 65 65 65 65 14 87 87 87 87 87 57 57
 57 81 81 81 73 73 73 73 73 73 73 59 59 65 65 44 44 14 87 87
 87 87 87 87 87 87 81 81 81 73 73 73 73 73 70 73 59 44 44 44
 44 44 83 87 87 87 87 87 87 87 87 81 81 52 81 70 70 70 70 70
 70 70 44 44 44 44 44 83 87 87 87 95 95 87 87 87 81 52 52 52
 70 70 70 70 70 70 70 44 44 44 44 83 83 83 87 87 87 87 87 87
 87 87 52 52 70 70 70 70 70 70 70 70 70 44 44 44 83 83 83 87
 87 87 87 87 87 87 87 70 70 70 70 70 70 70 70 26 26 26 88 88
 88 83 83 83 83 87 87 87 87 87 87 41 70 70 70 70 70 70 70 26
 26 26 26 88 88 88 88 83 83 83 87 87 41 41 41 41 41 70 70 70
 70 23 70 26 26 26 26 26 26 88 88 37 37 37 37 37 41 41 41 41
 41 41 41 70 70 23 23 23 26 26 26 26 26 26 88 37 37 37 37 37
 37 41 41 41 41 41 41 41 41 70 23 23 23 26 26 26 26 26 26 26
 37 37 37 37 37 37 41 41 41 41 41 41 41 41 41 23 92 92 26 26
 26 26 26 26 37 37 37 37 37 37 37 41 41 41 41 41 41 41 41 41
 92 92 92 92 26 26 11 11 11 27 27 37 37 37 37 37 41 41 41 41
 41 41 41 41 92 92 92 92 92 92 11 11 11 11 27 27 27 27 37 37
 37 41 41 41 41 41 41 41 41 92 92 92 92 92 92 11 11 11 11 27
 27 27 27 27 27 27 48 48 48 41 41 41 41 92 92 92 92 92 90 90
 90 11 11 27 27 27 27 27 27 27 1 48 48 48 41 41 41 41 92 92
 92 90 90 90 90 90 90 27 27 27 27 27 27 27 1 1 1 48 48 48
 41 41 69 69 69 90 90 90 90 90 90 90 27 27 27 27 27 27 27 1
 1 1 1 48 48 82 69 69 69 69 90 90 90 90 90 90 90 27 27 27
 27 27 27 1 1 1 1 1 1 82 69 69 69 69 69 90 90 90 90 90
 90 94 94 94 94 94 10 10 1 1 1 1 1 1 82 36 69 69 69 69
 73 73 90 90 90 90 94 94 94 94 94 94 10 10 1 1 1 1 1 57
 57 69 73 73 73 73 73 73 73 73 59 59 94 94 94 94 94 10 10 29
 1 1 1 57 57 57 21 73 73 73 73 73 73 73 73 59 59 59 94 94
 94 94 94 29 29 29 1 57 57 57 57 21 73 73 73 73 73 73 73 73
 65 65 65 65 94 94 94 94 94 87 87 87 57 57 57 57 73 73 73 73
 73 73 73 73 73 65 65 65 65 65 65 94 94 87 87 87 87 87 87 87
 87 81 81 73 73 73 73 73 73 73 65 65 65 65 65 65 65 65 87 87
 87 87 87 87 87 87 81 81 81 73 73 73 73 73 73 65 65 65 65 65
 65 65 87 87 87 87 87 87 87 87 87 81 81 81 81 81 73 73 73 73
 65 65 65 65 65 44 44 87 87 87 87 87 87 87 87 87 81 81 81 81
 81 70 70 70 70 70 65 65 44 44 44 32 87 87 87 87 87 87 87 87
 87 81 81 81 81 70 70 70 70 70 70 70 65 44 44 44 32 87 87 87
 87 87 87 87 87 87 87 81 81 70 70 70 70 70 70 70 26 26 88 88
 88 32 87 87 87 87 87 87 87 87 87 87 70 70 70 70 70 70 70 26
 26 26 26 88 88 88 88 87 87 87 87 87 87 87 87 87 87 70 70 70
 23 23 23 26 26 26 26 26 88 88 88 88 83 87 87 87 87 87 41 41