# vtk DataFile Version 2.0
Data set from ImportExport Version 6.5.141.ec284b7a5
ASCII

DATASET RECTILINEAR_GRID
DIMENSIONS 26 26 26
X_COORDINATES 26 float
-3.000000 3.000000 9.000000 15.000000 21.000000 27.000000 33.000000 39.000000 45.000000 51.000000 57.000000 63.000000 69.000000 75.000000 81.000000 87.000000 93.000000 99.000000 105.000000 111.000000 117.000000 
123.000000 129.000000 135.000000 141.000000 147.000000 
Y_COORDINATES 26 float
-3.000000 3.000000 9.000000 15.000000 21.000000 27.000000 33.000000 39.000000 45.000000 51.000000 57.000000 63.000000 69.000000 75.000000 81.000000 87.000000 93.000000 99.000000 105.000000 111.000000 117.000000 
123.000000 129.000000 135.000000 141.000000 147.000000 
Z_COORDINATES 26 float
-3.000000 3.000000 9.000000 15.000000 21.000000 27.000000 33.000000 39.000000 45.000000 51.000000 57.000000 63.000000 69.000000 75.000000 81.000000 87.000000 93.000000 99.000000 105.000000 111.000000 117.000000 
123.000000 129.000000 135.000000 141.000000 147.000000 
CELL_DATA 15625
SCALARS FeatureIds int 1
LOOKUP_TABLE default
 20 20 20 20 38 38 38 74 74 74 74 74 24 24 24 24 24 66 66 66
 25 25 25 25 25 20 20 20 20 20 20 20 74 74 74 74 74 24 24 24
 24 66 66 66 66 25 25 25 25 25 20 20 20 20 20 20 20 57 57 57
 57 57 24 24 24 24 66 66 66 66 25 25 25 25 20 20 20 20 20 20
 20 20 57 57 57 57 57 57 24 24 24 66 66 66 66 25 25 25 20 20
 20 20 20 20 20 20 57 57 57 57 57 57 57 57 100 100 66 66 66 66
 25 25 20 20 20 20 20 20 20 20 20 57 57 57 57 57 57 57 57 100
 100 66 66 66 66 25 25 20 20 20 20 20 20 20 20 20 57 57 57 57
 57 57 57 57 97 97 97 97 66 66 25 20 20 20 20 20 20 20 20 20
 20 57 57 57 57 57 57 57 57 97 97 97 97 66 66 20 20 20 20 20
 20 20 20 20 61 61 70 70 57 57 57 57 57 57 97 97 97 2 2 4
 4 4 20 20 20 20 20 61 61 61 61 70 70 70 70 57 57 57 56 56
 97 2 2 2 4 4 4 4 20 20 20 61 61 61 61 61 70 70 70 70
 70 70 56 56 56 56 2 2 2 4 4 4 4 4 4 61 61 61 61 61
 61 70 70 70 70 70 56 56 56 56 56 2 2 2 2 4 4 4 4 4
 61 61 61 61 61 61 70 70 70 70 70 56 56 56 56 56 56 2 2 4
 4 4 4 4 4 61 61 61 61 61 61 70 70 70 70 70 56 56 56 56
 56 56 2 2 4 4 4 4 4 4 61 61 61 61 61 45 45 70 70 70
 56 56 56 56 56 56 56 56 40 40 40 40 40 40 40 40 40 61 61 45
 45 45 45 70 70 56 56 56 56 56 56 56 40 40 40 40 40 40 40 40
 40 40 40 45 45 45 45 45 70 35 56 56 56 56 56 56 56 40 40 40
 40 40 40 40 40 40 40 15 15 15 15 15 15 15 35 56 56 56 56 56
 56 40 40 40 40 40 40 40 40 40 40 40 15 15 15 15 15 15 15 35
 35 73 73 73 73 73 40 40 40 40 40 40 40 40 40 40 40 15 15 15
 15 15 15 15 74 74 35 73 73 73 73 40 40 40 40 40 40 40 40 40
 40 15 15 15 15 15 15 15 74 74 74 74 74 73 73 73 40 40 40 40
 40 40 40 40 40 40 15 15 15 15 15 15 74 74 74 74 74 74 24 24
 24 24 40 40 40 40 40 40 40 40 40 15 15 15 15 15 74 74 74 74
 74 74 74 24 24 24 24 66 66 66 25 25 25 25 25 93 93 93 15 15
 15 74 74 74 74 74 74 74 24 24 24 24 66 66 66 25 25 25 25 25
 93 93 93 38 74 74 74 74 74 74 74 74 24 24 24 24 24 66 66 66
 25 25 25 25 25 20 20 38 38 38 38 38 74 74 74 74 74 24 24 24
 24 66 66 66 66 66 25 25 25 25 20 20 20 20 38 10 10 34 74 74
 74 100 100 100 100 100 66 66 66 66 25 25 25 25 25 20 20 20 20 10
 10 10 34 57 57 57 57 100 100 100 100 66 66 66 66 25 25 25 25 25
 20 20 20 20 10 10 10 34 57 57 57 57 100 100 100 100 66 66 66 66
 25 25 25 25 20 20 20 20 20 20 10 10 57 57 57 57 57 57 100 100
 100 66 66 66 66 25 25 25 20 20 20 20 20 20 20 20 57 57 57 57
 57 57 57 100 100 100 100 66 66 66 25 25 20 20 20 20 20 20 20 20
 20 57 57 57 57 57 57 57 57 97 97 97 97 66 66 25 20 20 20 20
 20 20 20 20 20 20 57 57 57 57 57 57 57 57 97 97 97 94 94 94
 20 20 20 20 20 20 20 20 61 61 61 70 70 70 57 57 57 57 57 97
 97 97 2 94 94 4 4 20 20 20 20 61 61 61 61 61 70 70 70 70
 70 57 57 57 97 97 97 2 2 4 4 4 4 20 20 61 61 61 61 61
 61 70 70 70 70 70 70 70 56 56 2 2 2 2 2 4 4 4 4 4
 61 61 61 61 61 61 70 70 70 70 70 70 56 56 56 56 2 2 2 2
 4 4 4 4 4 61 61 61 61 61 61 70 70 70 70 70 70 56 56 56
 56 2 2 2 2 4 4 4 4 4 61 61 61 61 61 61 70 70 70 70
 70 56 56 56 56 56 56 2 2 40 40 40 4 4 4 55 61 61 61 61
 61 70 70 70 70 70 56 56 56 56 56 56 56 40 40 40 40 40 40 40
 40 55 61 61 45 45 45 45 70 70 73 73 73 56 56 56 56 40 40 40
 40 40 40 40 40 40 40 55 15 15 15 15 15 35 35 73 73 73 73 73
 73 73 40 40 40 40 40 40 40 40 40 40 15 15 15 15 15 15 35 35
 35 73 73 73 73 73 73 40 40 40 40 40 40 40 40 40 40 15 15 15
 15 15 15 35 35 35 73 73 73 73 73 73 40 40 40 40 40 40 40 40
 40 15 15 15 15 15 15 15 35 35 35 35 73 73 73 73 73 40 40 40
 40 40 40 40 40 40 15 15 15 15 15 15 15 35 35 35 35 35 73 73
 73 73 40 40 40 40 40 40 40 40 40 15 15 15 15 15 15 15 74 74
 74 74 35 35 24 24 24 66 40 40 40 40 40 40 40 93 93 93 15 15
 15 15 74 74 74 74 74 74 24 24 24 24 66 66 66 66 40 25 25 25
 93 93 93 93 15 15 74 74 74 74 74 74 74 24 24 24 24 66 66 66
 66 25 25 25 25 93 93 93 38 38 74 74 74 74 74 74 74 24 24 24
 24 66 66 66 66 66 25 25 25 25 20 20 38 38 38 38 38 34 34 74
 74 74 100 100 100 100 66 66 66 66 66 25 25 25 25 20 20 20 38 38
 10 10 34 34 34 57 100 100 100 100 100 66 66 66 66 66 25 25 25 25
 20 20 20 10 10 10 34 34 34 57 57 57 100 100 100 100 100 66 66 66
 25 25 25 25 25 20 20 20 10 10 10 34 34 34 57 57 57 100 100 100
 100 100 66 66 66 25 25 25 25 20 20 20 20 20 10 10 34 34 57 57
 57 57 100 100 100 100 100 66 66 66 25 25 25 25 20 20 20 20 20 10
 10 34 57 57 57 57 57 57 100 100 100 100 66 66 66 25 25 25 20 20
 20 20 20 20 20 10 57 57 57 57 57 57 57 100 100 97 97 94 94 66
 79 79 79 20 20 20 20 20 20 20 57 57 57 57 57 57 57 57 57 97
 97 94 94 94 94 94 79 79 79 20 20 20 20 61 61 61 70 70 70 57
 57 57 57 94 94 97 94 94 94 94 94 79 79 79 20 20 61 61 61 61
 61 70 70 70 70 70 57 57 94 94 94 94 94 94 94 94 79 79 79 20
 61 61 61 61 61 61 70 70 70 70 70 70 70 94 94 94 94 2 94 94
 94 4 4 79 4 61 61 61 61 61 61 70 70 70 70 70 70 70 94 94
 2 2 2 2 2 94 4 4 4 4 61 61 61 61 61 61 70 70 70 70
 70 70 56 56 56 56 2 2 2 94 94 4 4 4 55 55 61 61 61 61
 61 61 70 70 70 70 70 56 56 56 56 56 2 2 40 40 40 40 40 55
 55 55 55 61 61 61 61 70 70 70 70 73 73 73 73 56 68 68 40 40
 40 40 40 40 40 55 55 55 55 45 61 61 70 35 35 35 73 73 73 73
 73 73 40 40 40 40 40 40 40 40 55 55 55 55 15 15 15 35 35 35
 35 73 73 73 73 73 73 40 40 40 40 40 40 40 40 40 55 55 15 15
 15 15 35 35 35 35 73 73 73 73 73 73 40 40 40 40 40 40 40 40
 40 55 55 15 15 15 15 35 35 35 35 73 73 73 73 73 73 40 40 40
 40 40 40 40 40 40 15 15 15 15 15 15 15 35 35 35 35 73 73 73
 73 73 40 40 40 40 40 40 40 40 40 15 15 15 15 15 15 15 35 35
 35 35 35 73 73 73 73 40 40 40 40 40 40 40 40 40 15 15 15 15
 15 15 35 35 35 35 35 35 35 73 73 78 37 37 40 40 40 40 40 40
 93 93 93 93 93 15 15 35 35 35 35 35 35 35 24 24 78 78 78 66
 66 25 25 25 25 93 93 93 93 93 15 74 74 74 74 74 74 74 24 24
 24 78 78 78 66 66 25 25 25 25 93 93 93 38 38 38 80 74 74 74
 74 74 24 24 24 24 66 66 66 66 66 25 25 25 25 20 38 38 38 38
 38 34 34 34 34 74 100 100 100 100 100 66 66 66 66 66 25 25 25 25
 20 20 20 38 38 10 34 34 34 34 57 100 100 100 100 100 100 66 66 66
 66 25 25 25 25 20 20 20 10 10 10 34 34 34 34 57 100 100 100 100
 100 100 66 66 66 66 25 25 25 25 20 20 20 10 10 10 10 34 34 57
 57 57 100 100 100 100 100 66 66 66 25 25 25 25 25 20 20 20 10 10
 10 34 34 34 57 57 57 100 100 100 100 100 66 66 66 25 25 25 25 20
 20 20 20 10 10 10 34 34 57 57 57 57 57 100 100 100 100 66 66 66
 25 79 79 79 79 79 20 20 20 10 10 57 57 57 57 57 57 57 100 100
 100 94 94 94 94 79 79 79 79 79 79 79 20 20 20 92 92 57 57 57
 57 57 57 94 94 94 94 94 94 94 94 79 79 79 79 79 20 61 61 61
 92 92 70 70 57 57 57 57 94 94 94 94 94 94 94 94 79 79 79 79
 79 61 61 61 61 61 70 70 70 70 57 57 94 94 94 94 94 94 94 94
 94 79 79 79 79 61 61 61 61 61 61 70 70 70 70 70 70 94 94 94
 94 94 94 94 94 94 94 79 79 79 61 61 61 61 61 61 70 70 70 70
 70 70 94 94 94 94 94 94 94 94 94 94 79 79 55 55 61 61 61 61
 61 61 70 70 70 70 70 73 94 94 94 94 94 94 94 94 53 53 55 55
 55 55 55 61 61 61 61 70 70 70 70 90 73 73 73 94 94 94 94 94
 40 40 40 55 55 55 55 55 55 61 61 61 70 70 70 35 73 73 73 73
 73 68 68 68 40 40 40 40 40 55 55 55 55 55 55 61 61 35 35 35
 35 73 73 73 73 73 68 68 68 40 40 40 40 40 55 55 55 55 55 55
 35 35 35 35 35 35 73 73 73 73 73 68 68 40 40 40 40 40 40 55
 55 55 55 55 55 19 35 35 35 35 35 73 73 73 73 73 73 40 40 40
 40 40 40 40 40 55 55 55 19 19 19 19 35 35 35 35 35 73 73 73
 73 73 40 40 40 40 40 40 40 40 55 55 55 19 19 19 19 35 35 35
 35 35 73 73 73 73 73 40 40 40 40 40 40 40 40 55 55 19 19 19
 19 19 35 35 35 35 35 35 73 73 73 73 37 37 37 40 40 40 40 40
 30 93 93 19 19 19 35 35 35 35 35 35 35 35 73 73 78 37 37 37
 37 37 40 40 40 30 93 93 93 93 80 80 35 35 35 35 35 35 35 73
 78 78 78 78 37 37 37 25 25 25 30 93 93 93 93 80 80 80 80 35
 35 35 35 35 24 78 78 78 78 66 66 25 25 25 25 30 93 93 93 38
 80 80 80 80 80 35 35 35 24 24 78 78 78 78 66 66 25 25 25 25
 80 80 80 80 80 80 80 80 80 80 80 100 100 100 100 100 100 78 67 67
 67 25 25 25 25 80 80 80 80 80 10 34 34 34 34 57 100 100 100 100
 100 100 67 67 67 67 25 25 25 25 20 20 10 10 10 10 34 34 34 34
 57 100 100 100 100 100 100 67 67 67 67 25 25 25 25 20 20 10 10 10
 10 34 34 34 57 57 57 100 100 100 100 100 67 67 67 25 25 25 25 25
 79 20 20 10 10 10 34 34 34 57 57 57 100 100 100 100 100 100 67 66
 25 25 25 79 79 79 20 20 10 10 10 34 34 57 57 57 57 57 100 100
 100 100 100 67 66 79 79 79 79 79 79 79 79 20 10 10 57 57 57 57
 57 57 57 9 100 94 94 94 94 94 79 79 79 79 79 79 79 79 20 92
 92 92 92 92 57 57 57 57 94 94 94 94 94 94 94 79 79 79 79 79
 79 79 79 61 92 92 92 92 92 57 57 57 94 94 94 94 94 94 94 94
 94 79 79 79 79 79 61 61 61 92 92 92 92 70 70 57 94 94 94 94
 94 94 94 94 94 94 79 79 79 79 61 61 61 61 88 88 88 70 70 70
 70 94 94 94 94 94 94 94 94 94 94 53 53 79 79 55 61 61 61 88
 88 88 70 70 70 70 70 94 94 94 94 94 94 94 94 53 53 53 53 55
 55 55 55 61 61 88 88 70 70 70 70 90 90 94 94 94 94 94 94 94
 53 53 53 55 55 55 55 55 55 61 61 61 70 70 70 90 90 90 90 90
 94 94 94 94 94 94 53 53 55 55 55 55 55 55 55 61 61 70 35 35
 90 90 90 90 90 90 68 68 68 68 40 40 40 55 55 55 55 55 55 55
 35 35 35 35 35 35 73 73 73 73 68 68 68 68 68 40 40 40 55 55
 55 55 55 55 55 35 35 35 35 35 35 73 73 73 73 73 68 68 68 40
 40 40 40 40 55 55 55 55 55 55 19 35 35 35 35 35 35 73 73 73
 73 68 68 68 40 40 40 40 40 55 55 55 55 55 19 19 19 35 35 35
 35 35 73 73 73 73 73 68 40 40 40 40 40 40 40 55 55 55 19 19
 19 19 35 35 35 35 35 35 73 73 73 73 37 37 37 40 40 40 40 40
 55 55 19 19 19 19 35 35 35 35 35 35 35 35 73 73 37 37 37 37
 37 40 40 40 40 30 30 80 80 80 80 35 35 35 35 35 35 35 35 35
 73 37 37 37 37 37 37 40 40 40 30 30 93 93 80 80 80 80 35 35
 35 35 35 35 35 78 78 78 37 37 37 37 37 37 37 30 30 93 93 80
 80 80 80 80 35 35 35 35 35 35 78 78 78 78 78 37 37 25 25 25
 30 30 80 93 80 80 80 80 80 80 35 35 35 58 58 78 78 78 78 78
 67 25 25 25 25 80 80 80 80 80 80 80 80 80 80 80 80 58 58 58
 58 58 58 67 67 67 67 25 25 25 80 80 80 80 80 80 80 80 80 80
 80 100 100 100 58 58 58 67 67 67 67 67 25 25 25 80 80 80 80 80
 80 34 34 34 34 57 100 100 100 100 58 58 67 67 67 67 67 25 25 25
 49 49 49 10 10 10 34 34 34 57 57 100 100 100 100 100 58 67 67 67
 67 67 25 25 79 79 49 49 10 10 10 34 34 34 57 57 57 100 100 100
 100 100 100 67 67 67 79 79 79 79 79 49 49 49 10 10 34 34 34 57
 57 57 9 9 100 100 94 94 94 67 79 79 79 79 79 79 79 79 79 92
 92 34 57 57 57 57 57 9 9 9 94 94 94 94 94 79 79 79 79 79
 79 79 79 79 92 92 92 92 92 57 57 9 9 9 94 94 94 94 94 94
 79 79 79 79 79 79 79 79 92 92 92 92 92 92 92 41 9 94 94 94
 94 94 94 94 94 94 79 79 79 79 79 79 61 92 92 92 92 92 92 92
 41 94 94 94 94 94 94 94 94 94 94 79 79 79 79 79 79 61 88 88
 88 88 46 46 70 41 94 94 94 94 94 94 94 94 94 94 53 53 53 79
 55 55 61 88 88 88 88 88 46 70 70 94 94 94 94 94 94 94 94 94
 53 53 53 53 53 55 55 55 55 88 88 88 88 70 70 90 90 90 90 94
 94 94 94 94 94 53 53 53 53 55 55 55 55 55 88 88 88 88 70 90
 90 90 90 90 90 94 94 94 94 94 94 59 59 55 55 55 55 55 55 55
 61 88 35 35 90 90 90 90 90 90 90 68 68 68 68 94 59 59 55 55
 55 55 55 55 55 55 35 35 35 35 90 90 90 90 90 90 68 68 68 68
 40 40 40 55 55 55 55 55 55 55 35 35 35 35 35 35 90 90 90 90
 90 68 68 68 68 40 40 40 55 55 55 55 55 55 55 35 35 35 35 35
 35 35 73 73 73 73 68 68 68 40 40 40 40 55 55 55 55 55 55 19
 19 35 35 35 35 35 35 35 73 73 73 73 68 40 40 40 40 40 40 55
 55 55 55 19 19 19 35 35 35 35 35 35 35 35 73 73 73 37 37 37
 37 40 40 40 55 55 80 80 80 80 80 35 35 35 35 35 35 35 35 73
 73 37 37 37 37 37 37 40 40 55 30 80 80 80 80 80 80 35 35 35
 35 35 35 35 35 35 37 37 37 37 37 37 37 37 55 30 30 80 80 80
 80 80 80 35 35 35 35 35 35 35 78 78 78 37 37 37 37 37 37 37
 30 30 30 80 80 80 80 80 80 80 35 35 35 35 58 78 78 78 78 37
 37 37 37 25 25 30 30 80 80 80 80 80 80 80 80 80 35 35 58 58
 58 58 78 78 67 67 67 25 25 25 80 80 80 80 80 80 80 80 80 80
 80 63 58 58 58 58 58 58 67 67 67 67 67 25 25 80 80 80 80 80
 80 80 80 80 80 80 58 58 58 58 58 58 58 67 67 67 67 67 25 25
 80 80 80 80 80 80 80 80 80 80 80 58 58 58 58 58 58 58 67 67
 67 67 67 65 65 49 49 49 10 10 10 34 34 34 57 57 100 100 58 58
 58 58 58 67 67 67 65 65 65 65 49 49 49 49 10 10 34 34 34 57
 9 9 9 9 9 9 58 58 67 67 67 65 65 65 65 49 49 49 49 49
 10 34 34 34 9 9 9 9 9 9 9 9 94 94 65 65 65 79 79 79
 79 49 49 49 92 92 92 92 92 9 9 9 9 9 9 9 9 94 94 94
 79 79 79 79 79 79 49 49 49 92 92 92 92 92 41 9 9 9 9 9
 94 94 94 94 94 79 79 79 79 79 79 49 49 92 92 92 92 92 46 41
 41 9 9 9 94 94 94 94 94 94 94 79 79 79 79 79 79 79 92 92
 92 92 46 46 41 41 41 94 94 94 94 94 94 94 94 94 94 79 79 79
 79 79 88 88 88 88 46 46 46 41 41 41 94 94 94 94 94 94 94 94
 94 53 53 65 65 55 55 88 88 88 88 88 46 46 41 41 94 94 94 94
 94 94 94 94 94 94 53 53 59 59 55 55 55 55 88 88 88 88 46 90
 90 90 90 90 94 94 94 94 94 94 94 59 59 59 55 55 55 55 55 32
 32 32 32 90 90 90 90 90 90 90 94 94 94 94 94 94 59 59 59 55
 55 55 55 55 32 32 32 32 90 90 90 90 90 90 90 90 68 68 68 94
 59 59 59 55 55 55 55 55 55 55 32 35 35 35 35 90 90 90 90 90
 90 68 68 68 68 59 59 59 55 55 55 55 55 55 55 35 35 35 35 35
 35 90 90 90 90 90 68 68 68 68 40 59 59 55 55 55 55 55 55 55
 35 35 35 35 35 35 35 90 90 90 90 90 68 68 68 40 40 40 55 55
 55 55 55 55 55 35 35 35 35 35 35 35 35 90 90 90 90 68 68 37
 40 40 40 40 55 55 55 80 80 80 35 35 35 35 35 35 35 35 35 73
 90 90 37 37 37 37 37 40 40 55 80 80 80 80 80 80 80 35 35 35
 35 35 35 35 35 90 37 37 37 37 37 37 37 37 55 80 80 80 80 80
 80 80 80 35 35 35 35 35 35 35 35 37 37 37 37 37 37 37 37 37
 30 30 80 80 80 80 80 80 80 35 35 35 35 35 35 78 78 37 37 37
 37 37 37 84 84 30 30 80 80 80 80 80 80 80 80 35 35 35 58 58
 58 78 37 37 37 37 37 84 84 84 30 30 80 80 80 80 80 80 80 80
 80 35 58 58 58 58 58 58 78 67 67 67 84 84 84 80 80 80 80 80
 80 80 80 80 80 63 63 63 58 58 58 58 58 26 26 26 26 26 65 65
 80 80 80 80 80 80 80 80 80 80 63 63 63 58 58 58 58 58 26 26
 26 26 26 65 65 65 49 49 80 80 80 80 80 80 80 63 63 63 58 58
 58 58 58 26 26 26 26 65 65 65 65 49 49 49 80 80 80 34 34 57
 63 63 63 63 58 58 58 58 26 26 26 65 65 65 65 49 49 49 49 49
 10 34 34 34 9 9 9 9 9 9 9 9 58 26 26 65 65 65 65 65
 49 49 49 49 49 49 34 34 9 9 9 9 9 9 9 9 9 9 9 65
 65 65 65 65 65 49 49 49 49 49 92 46 46 41 41 9 9 9 9 9
 9 9 9 9 65 65 65 65 65 65 65 49 49 49 92 92 46 46 41 41
 9 9 9 9 9 9 9 94 94 94 65 65 65 65 65 65 65 49 49 92
 92 46 46 46 41 41 9 9 9 9 94 94 94 94 94 65 65 65 65 65
 65 65 65 92 92 92 46 46 46 41 41 41 9 9 94 94 94 94 94 94
 94 65 65 65 65 65 65 65 88 88 88 46 46 46 41 41 41 94 94 94
 94 94 94 94 94 94 94 65 65 65 65 55 88 88 88 88 46 46 41 41
 41 41 94 94 94 94 94 94 94 94 94 59 59 59 59 55 55 55 32 32
 32 32 32 41 41 90 90 90 94 94 94 94 94 94 94 59 59 59 59 59
 55 55 55 55 32 32 32 32 32 90 90 90 90 90 90 94 94 94 94 94
 59 59 59 59 59 55 55 55 55 32 32 32 32 90 90 90 90 90 90 90
 90 94 94 94 94 59 59 59 59 55 55 55 55 55 55 32 32 35 35 90
 90 90 90 90 90 90 90 68 68 94 59 59 59 59 55 55 55 55 55 55
 35 35 35 35 35 90 90 90 90 90 90 90 68 68 68 59 59 59 55 55
 55 55 55 55 55 35 35 35 35 35 35 90 90 90 90 90 90 68 68 68
 59 59 59 55 55 55 55 55 55 35 35 35 35 35 35 35 35 35 90 90
 90 90 68 68 37 40 40 40 55 55 55 55 80 80 80 80 35 35 35 35
 35 35 35 35 90 90 90 37 37 37 37 37 40 55 55 17 80 80 80 80
 80 80 35 35 35 35 35 35 35 35 90 37 37 37 37 37 37 37 37 55
 80 80 80 80 80 80 80 80 35 35 35 35 35 35 35 35 37 37 37 37
 37 37 37 84 84 80 80 80 80 80 80 80 80 80 80 35 35 35 35 35
 58 58 13 13 13 37 37 37 84 84 80 80 80 80 80 80 80 80 80 80
 80 35 63 63 58 58 58 58 13 13 37 37 84 84 84 80 80 80 80 80
 80 80 80 80 80 80 63 63 63 58 58 58 58 26 26 26 26 84 84 84
 80 80 80 80 80 80 80 80 80 80 63 63 63 63 58 58 58 58 26 26
 26 26 26 65 65 80 80 80 80 80 80 80 80 80 80 63 63 63 63 58
 58 58 58 26 26 26 26 65 65 65 65 80 80 80 80 80 80 80 80 80
 63 63 63 63 58 58 58 58 26 26 26 65 65 65 65 65 49 49 49 80
 80 80 80 80 63 63 63 63 63 63 58 58 58 26 26 26 65 65 65 65
 65 49 49 49 80 80 80 80 9 9 9 9 9 9 9 9 9 58 65 65
 65 65 65 65 65 49 49 49 49 49 49 34 34 9 9 9 9 9 9 9
 9 9 9 65 65 65 65 65 65 65 65 49 49 49 49 46 46 41 41 41
 9 9 9 9 9 9 9 9 9 65 65 65 65 65 65 65 65 49 49 46
 46 46 41 41 41 41 9 9 9 9 9 9 9 94 65 65 65 65 65 65
 65 65 65 65 46 46 46 46 41 41 41 9 9 9 9 9 94 94 94 65
 65 65 65 65 65 65 65 65 16 46 46 46 46 41 41 41 41 9 9 9
 94 94 94 94 94 65 65 65 65 65 65 65 65 16 46 46 46 46 41 41
 41 41 9 94 94 94 94 94 94 94 94 65 65 65 65 65 65 16 16 88
 46 46 41 41 41 41 41 94 94 94 94 94 94 94 94 59 59 59 59 65
 55 55 55 32 32 32 32 41 41 41 41 90 90 94 94 94 94 94 94 94
 59 59 59 59 59 55 55 55 32 32 32 32 32 41 90 90 90 90 90 90
 94 94 94 94 59 59 59 59 59 59 55 55 55 55 32 32 32 32 90 90
 90 90 90 90 90 90 94 94 94 59 59 59 59 59 59 55 55 55 55 32
 32 32 35 35 90 90 90 90 90 90 90 90 94 94 59 59 59 59 59 59
 55 55 55 55 55 35 35 35 35 35 90 90 90 90 90 90 90 90 68 59
 59 59 59 59 55 55 55 55 55 55 35 35 35 35 35 35 90 90 90 90
 90 90 90 68 59 59 59 59 59 55 55 55 55 80 80 35 35 35 35 35
 35 35 90 90 90 90 90 90 13 13 13 13 59 59 55 17 17 80 80 80
 80 80 35 35 35 35 35 35 35 90 90 90 13 13 13 13 13 13 13 5
 17 17 80 80 80 80 80 80 35 35 35 35 35 35 35 90 13 13 13 13
 13 13 13 13 5 17 17 80 80 80 80 80 80 80 80 35 35 35 35 35
 13 13 13 13 13 13 13 13 13 5 17 17 80 80 80 80 80 80 80 80
 35 35 35 63 63 63 13 13 13 13 13 13 13 84 84 80 80 80 80 80
 80 80 80 80 80 80 63 63 63 63 63 63 13 13 13 13 13 13 84 84
 80 80 80 80 80 80 80 80 80 80 80 63 63 63 63 58 58 58 26 26
 26 26 84 84 84 80 80 80 80 80 80 80 80 80 80 63 63 63 63 63
 63 58 58 26 26 26 26 87 87 87 80 80 80 80 80 80 80 80 80 63
 63 63 63 63 63 63 58 58 26 26 26 26 65 65 65 65 80 80 80 80
 80 80 80 80 63 63 63 63 63 63 63 58 58 26 26 26 65 65 65 65
 65 65 12 80 80 80 80 80 63 63 63 63 63 63 63 63 63 58 26 26
 65 65 65 65 65 65 65 49 12 12 12 80 80 9 9 9 9 9 9 9
 63 63 63 65 65 65 65 65 65 65 65 65 49 12 12 12 12 41 9 9
 9 9 9 9 9 9 9 9 48 65 65 65 65 65 65 65 65 49 49 12
 41 41 41 41 41 9 9 9 9 9 9 9 9 48 65 65 65 65 65 65
 65 65 65 16 41 41 41 41 41 41 41 9 9 9 9 9 9 9 48 65
 65 65 65 65 65 65 65 65 16 16 41 41 41 41 41 41 9 9 9 9
 9 9 9 48 65 65 65 65 65 65 65 65 65 16 16 16 41 41 41 41
 41 41 9 9 9 9 94 94 94 65 65 65 65 65 65 65 65 16 16 16
 16 41 41 41 41 41 41 9 9 9 94 94 94 94 94 65 65 65 65 65
 65 65 16 16 16 16 41 41 41 41 41 41 9 94 94 94 94 94 94 94
 59 59 59 59 65 59 55 16 16 16 16 41 41 41 41 41 90 90 94 94
 94 94 94 94 59 59 59 59 59 59 59 55 55 16 32 32 32 41 41 41
 90 90 90 90 90 94 94 94 94 59 59 59 59 59 59 59 55 55 55 32
 32 32 51 90 90 90 90 90 90 90 90 94 94 94 59 59 59 59 59 59
 55 55 55 55 82 51 51 51 51 90 90 90 90 90 90 90 90 94 94 59
 59 59 59 59 59 55 55 55 55 82 51 51 51 51 35 90 90 90 90 90
 90 90 90 94 59 59 59 59 59 59 55 5 5 5 82 51 51 51 51 35
 14 90 90 90 90 90 90 90 94 59 59 59 59 59 5 5 5 5 80 80
 51 51 51 35 35 35 14 90 90 90 90 90 90 13 13 13 13 59 5 5
 5 5 5 80 80 80 80 80 35 35 35 35 14 14 90 90 90 13 13 13
 13 13 13 5 5 17 17 17 80 80 80 80 80 80 35 35 35 35 14 14
 90 13 13 13 13 13 13 13 5 5 17 17 17 80 80 80 80 80 80 80
 35 35 35 63 63 63 13 13 13 13 13 13 13 13 5 17 17 80 80 80
 80 80 80 80 80 35 63 63 63 63 63 13 13 13 13 13 13 13 13 5
 80 80 80 80 80 80 80 80 80 80 63 63 63 63 63 63 63 13 13 13
 13 13 13 84 84 80 80 80 80 80 80 80 80 80 80 63 63 63 63 63
 63 63 58 13 26 13 13 87 87 87 80 80 80 80 80 80 80 80 80 63
 63 63 63 63 63 63 63 63 75 26 75 87 87 87 87 87 80 12 80 80
 80 80 80 80 63 63 63 63 63 63 63 63 63 26 26 26 65 87 87 87
 65 12 12 12 12 12 80 80 80 63 63 63 63 63 63 63 63 63 63 26
 65 65 65 65 65 65 12 12 12 12 12 12 80 63 63 63 63 63 63 63
 63 63 63 63 65 65 65 65 65 65 65 12 12 12 12 12 12 12 9 9
 9 9 63 63 63 63 63 48 48 65 65 65 65 65 65 65 65 12 12 12
 12 12 41 41 9 9 9 9 9 9 9 9 48 48 48 65 65 65 65 65
 65 65 12 12 12 12 41 41 41 41 9 9 9 9 9 9 9 48 48 48
 65 65 65 65 65 65 65 65 16 16 16 41 41 41 41 9 9 9 9 9
 9 9 48 48 48 65 65 65 65 65 65 65 16 16 16 16 41 41 41 41
 41 9 9 9 9 9 9 48 48 48 65 65 65 65 65 65 65 16 16 16
 16 41 41 41 41 41 41 9 9 9 9 9 48 48 48 65 65 65 65 65
 65 16 16 16 16 16 16 41 41 41 41 41 9 9 9 9 94 94 94 65
 65 65 65 65 65 65 16 16 16 16 16 16 41 41 41 41 41 9 9 94
 94 94 94 94 59 59 59 59 59 65 59 16 16 16 16 16 16 41 41 41
 41 41 90 94 94 94 94 94 94 59 59 59 59 59 59 59 16 16 16 16
 16 16 16 41 41 41 90 90 90 94 94 94 94 59 59 59 59 59 59 59
 59 55 16 16 16 16 16 51 51 14 90 90 90 90 90 90 94 94 59 59
 59 59 59 59 59 5 5 8 8 82 51 51 51 51 14 14 90 90 90 90
 90 90 94 59 59 59 59 59 59 59 5 5 5 5 82 82 51 51 51 14
 14 14 90 90 90 90 90 94 59 59 59 59 59 59 59 5 5 5 5 82
 82 51 51 51 14 14 14 14 90 90 90 90 90 59 59 59 59 59 59 5
 5 5 5 5 82 82 51 51 51 14 14 14 14 14 90 90 90 13 13 13
 13 13 5 5 5 5 5 5 5 80 80 80 51 14 14 14 14 14 14 14
 90 13 13 13 13 13 13 13 5 5 5 17 5 80 80 80 80 80 80 14
 14 14 14 14 14 14 13 13 13 13 13 13 13 5 5 17 17 17 80 80
 80 80 27 80 14 14 14 14 14 63 63 13 13 13 13 13 13 13 5 5
 17 17 80 80 80 80 80 80 80 80 63 63 63 63 63 63 13 13 13 13
 13 13 13 13 5 80 80 80 80 80 80 80 80 80 80 63 63 63 63 63
 63 63 13 33 33 33 13 13 87 87 80 80 80 80 80 80 80 80 80 80
 63 63 63 63 63 63 63 63 33 33 33 87 87 87 87 87 12 12 12 80
 80 80 80 63 63 63 63 63 63 63 63 63 63 75 75 75 87 87 87 87
 87 12 12 12 12 12 80 80 63 63 63 63 63 63 63 63 63 63 75 75
 75 87 87 87 87 87 12 12 12 12 12 80 80 63 63 63 63 63 63 63
 63 63 63 75 75 75 87 87 87 87 65 12 12 12 12 12 12 12 63 63
 63 63 63 63 63 63 63 63 75 75 65 65 65 65 87 65 12 12 12 12
 12 12 12 42 42 42 42 63 63 63 63 63 48 48 48 48 65 65 65 65
 65 12 12 12 12 12 12 12 41 42 42 42 9 9 9 9 48 48 48 48
 48 65 65 65 65 65 65 43 43 12 12 12 41 41 41 9 9 9 9 9
 9 48 48 48 48 48 65 65 65 65 65 65 43 43 43 43 41 41 41 41
 9 9 9 9 9 9 48 48 48 48 48 65 65 65 65 65 16 16 16 16
 16 16 41 41 41 41 9 9 9 9 9 48 48 48 48 48 65 65 65 65
 65 16 16 16 16 16 16 41 41 41 41 9 9 9 9 9 48 48 48 48
 48 65 65 65 65 16 16 16 16 16 16 16 41 41 41 41 41 9 9 9
 9 48 48 48 48 65 65 65 65 65 16 16 16 16 16 16 16 16 41 41
 41 41 9 9 9 94 94 94 48 59 59 59 59 65 65 16 16 16 16 16
 16 16 16 41 41 41 41 69 69 69 94 94 94 59 59 59 59 59 59 59
 16 16 16 16 16 16 16 16 16 14 14 14 90 69 69 69 94 94 59 59
 59 59 59 59 59 8 8 16 16 16 16 16 16 14 14 14 14 14 90 69
 69 94 94 59 59 59 59 59 59 59 8 8 8 8 16 16 51 51 51 14
 14 14 14 90 90 90 90 94 59 59 59 59 59 59 59 5 5 5 5 82
 82 51 51 51 14 14 14 14 14 14 90 90 11 59 59 59 59 59 59 5
 5 5 5 5 82 82 51 51 51 14 14 14 14 14 14 90 64 64 64 64
 59 59 59 5 5 5 5 5 5 82 82 51 51 51 14 14 14 14 14 14
 14 64 64 64 64 64 64 5 5 5 5 5 5 5 5 80 51 51 14 14
 14 14 14 14 14 14 64 64 64 64 13 13 5 5 5 5 5 5 5 5
 80 27 27 27 14 14 14 14 14 14 14 64 64 64 13 13 13 5 5 5
 5 5 5 5 80 80 27 27 27 14 14 14 14 14 14 14 64 13 13 13
 13 13 5 5 5 5 5 5 80 80 80 27 27 27 14 14 63 63 63 63
 63 13 13 33 33 33 13 13 5 5 5 80 80 80 80 80 80 80 80 63
 63 63 63 63 63 63 63 33 33 33 33 33 87 87 87 87 80 80 80 80
 80 80 80 80 63 63 63 63 63 63 63 63 63 33 33 33 87 87 87 87
 87 87 12 12 12 12 12 22 63 63 63 63 63 63 63 63 63 75 75 75
 75 87 87 87 87 87 12 12 12 12 12 12 22 63 63 63 63 63 63 63
 63 63 75 75 75 75 87 87 87 87 87 12 12 12 12 12 12 22 22 63
 63 63 63 63 63 63 63 75 75 75 75 87 87 87 87 87 12 12 12 12
 12 12 12 22 63 63 63 63 63 63 63 63 75 75 75 75 87 87 87 87
 12 12 12 12 12 12 12 12 42 42 42 42 42 63 63 63 63 48 48 48
 48 48 65 65 65 12 12 12 12 12 12 12 12 42 42 42 42 42 42 63
 63 48 48 48 48 48 48 65 65 65 65 43 43 43 43 12 12 41 41 42
 42 42 42 9 9 48 48 48 48 48 48 48 48 65 65 65 43 43 43 43
 43 43 41 41 41 9 9 9 9 9 48 48 48 48 48 48 48 48 65 65
 16 16 43 43 43 16 16 41 41 41 41 9 9 9 9 48 48 48 48 48
 48 48 65 65 65 16 16 16 16 16 16 16 16 41 77 77 9 9 9 9
 21 21 21 48 48 48 48 65 65 65 16 16 16 16 16 16 16 16 77 77
 77 9 9 9 9 9 21 21 48 48 48 48 65 65 65 16 16 16 16 16
 16 16 16 96 96 96 96 69 69 69 69 94 48 48 48 48 59 59 65 65
 16 16 16 16 16 16 16 16 96 96 96 96 69 69 69 69 69 69 59 59
 59 59 59 59 59 16 16 16 16 16 16 16 16 96 96 96 69 69 69 69
 69 69 69 59 59 59 59 59 59 59 8 8 8 16 16 16 16 16 14 14
 14 14 69 69 69 69 69 11 11 59 59 59 59 59 59 8 8 8 8 16
 16 51 51 14 14 14 14 14 69 69 69 11 11 11 59 59 59 59 59 59
 5 8 8 8 82 82 51 51 51 14 14 14 14 14 14 69 11 11 11 59
 59 59 59 5 5 5 5 5 5 82 82 51 51 51 14 14 14 14 14 14
 64 64 64 64 64 64 64 5 5 5 5 5 5 5 5 82 51 51 14 14
 14 14 14 14 14 64 64 64 64 64 64 64 5 5 5 5 5 5 5 5
 5 51 51 14 14 14 14 14 14 14 64 64 64 64 64 64 64 5 5 5
 5 5 5 5 5 5 27 27 14 14 14 14 14 14 14 64 64 64 64 64
 64 64 64 5 5 5 5 5 5 5 80 27 27 27 14 14 14 14 14 14
 64 64 64 64 64 64 64 99 5 5 5 5 5 5 5 80 27 27 27 14
 14 14 63 63 63 63 64 64 64 64 64 99 99 5 5 5 5 80 80 80
 80 80 80 80 14 63 63 63 63 63 63 63 64 33 33 33 33 87 87 87
 87 87 80 80 80 80 80 22 22 63 63 63 63 63 63 63 63 75 75 75
 75 87 87 87 87 87 12 12 12 12 12 22 22 22 22 63 63 63 63 63
 63 63 75 75 75 75 87 87 87 87 87 12 12 12 12 12 22 22 22 22
 63 63 63 63 63 63 63 75 75 75 75 87 87 87 87 87 12 12 12 12
 12 12 22 22 22 63 63 63 63 63 63 63 75 75 75 75 87 87 87 87
 87 12 12 12 12 12 12 22 22 22 42 63 63 63 63 63 63 75 75 75
 75 87 87 87 87 12 12 12 12 12 12 12 22 50 42 42 42 42 63 63
 63 48 48 48 48 48 48 48 87 87 62 12 12 12 12 12 12 50 50 42
 42 42 42 42 63 48 48 48 48 48 48 48 48 48 65 62 62 43 43 43
 43 43 50 50 42 42 42 42 42 9 48 48 48 48 48 48 48 48 48 65
 62 43 43 43 43 43 43 77 77 77 42 42 42 9 9 48 48 48 48 48
 48 48 48 48 65 16 16 43 43 43 16 16 77 77 77 77 77 9 9 9
 48 21 21 48 48 48 48 48 48 65 16 16 16 16 16 16 16 77 77 77
 77 77 77 9 9 21 21 21 21 48 48 48 48 48 65 16 16 16 16 16
 16 16 16 77 77 77 77 77 69 69 69 21 21 21 48 48 48 48 48 65
 16 16 16 16 16 16 16 16 96 96 96 96 69 69 69 69 69 21 48 48
 48 48 48 48 65 16 16 16 16 16 16 16 16 96 96 96 96 69 69 69
 69 69 69 48 59 59 59 59 59 59 16 16 16 16 16 16 16 16 96 96
 96 69 69 69 69 69 69 69 59 59 59 59 59 59 59 8 8 8 16 16
 16 16 16 14 14 14 14 69 69 69 69 69 11 11 59 59 59 59 59 59
 8 8 8 8 16 16 16 14 14 14 14 14 14 69 69 69 11 11 11 59
 59 59 59 59 5 5 8 8 8 82 82 51 14 14 14 14 14 14 14 69
 69 11 11 11 11 64 59 59 5 5 5 5 5 5 82 82 51 51 14 14
 14 14 14 14 14 64 64 64 64 64 64 64 5 5 5 5 5 5 5 5
 5 51 14 14 14 14 14 14 14 14 64 64 64 64 64 64 64 5 5 5
 5 5 5 5 5 5 5 14 14 14 14 14 14 14 14 64 64 64 64 64
 64 64 5 5 5 5 5 5 5 5 5 14 14 14 14 14 14 14 14 14
 64 64 64 64 64 64 99 99 5 5 5 5 5 5 5 5 27 14 14 14
 14 14 14 14 14 64 64 64 64 64 64 99 99 5 5 5 5 5 5 5
 5 27 14 14 14 14 14 14 63 63 64 64 64 64 64 64 99 99 99 5
 5 5 5 5 5 22 22 22 22 14 63 63 63 63 63 63 64 64 64 64
 64 99 99 87 87 87 5 12 12 12 22 22 22 22 63 63 63 63 63 63
 63 63 75 75 75 75 87 87 87 87 87 12 12 12 12 22 22 22 22 22
 63 63 63 63 63 63 63 75 75 75 75 87 87 87 87 87 12 12 12 12
 12 22 22 22 22 63 63 63 63 63 63 63 75 75 75 75 87 87 87 87
 87 12 12 12 12 12 22 22 22 22 22 63 63 63 63 63 63 75 75 75
 75 87 87 87 87 62 12 12 12 12 12 22 22 22 22 42 63 63 63 63
 63 63 75 75 75 75 87 87 87 87 62 62 12 12 12 12 22 22 50 50
 42 42 42 63 63 63 48 48 48 48 48 48 48 87 62 62 62 62 12 12
 12 22 50 50 50 42 42 42 42 63 48 48 48 48 48 48 48 48 48 62
 62 62 43 43 43 43 43 50 50 50 42 42 42 42 42 48 48 48 48 48
 48 48 48 48 62 62 62 43 43 43 43 77 77 77 77 77 42 42 42 48
 48 48 48 48 48 48 48 48 48 62 16 16 43 43 43 16 77 77 77 77
 77 77 77 9 48 48 48 48 48 48 48 48 48 48 48 16 16 16 16 16
 16 16 77 77 77 77 77 77 77 21 21 21 21 21 48 48 48 48 48 48
 16 16 16 16 16 16 16 77 77 96 77 77 77 69 69 21 21 21 21 48
 48 48 48 48 48 16 16 16 16 16 16 16 96 96 96 96 96 69 69 69
 69 69 21 48 48 48 48 48 48 48 16 16 16 16 16 16 16 96 96 96
 96 96 69 69 69 69 69 69 48 48 48 48 59 59 59 16 16 16 16 16
 16 16 16 96 96 96 96 69 69 69 69 69 69 69 59 59 59 59 59 59
 16 16 16 16 98 16 16 16 14 14 14 14 69 69 69 69 69 69 11 59
 59 59 59 59 5 8 8 8 16 16 16 16 14 14 14 14 14 14 69 69
 69 69 11 11 11 59 59 59 5 5 5 5 5 5 5 16 16 14 14 14
 14 14 14 14 69 69 64 11 11 64 64 64 5 5 5 5 5 5 5 5
 5 51 14 14 14 14 14 14 14 14 64 64 64 64 64 64 64 5 5 5
 5 5 5 5 5 5 14 14 14 14 14 14 14 14 14 64 64 64 64 64
 64 64 64 5 5 5 5 5 81 81 81 14 14 14 14 14 14 14 14 14
 64 64 64 64 64 64 64 99 5 5 5 5 5 5 5 5 14 14 14 14
 14 14 14 14 14 64 64 64 64 64 64 99 99 5 5 5 5 5 5 5
 5 22 14 14 14 76 76 76 14 14 64 64 64 64 64 99 99 99 99 5
 5 5 5 5 5 22 22 22 14 14 76 76 76 14 14 64 64 64 64 64
 99 99 99 99 5 5 5 5 5 22 22 22 22 22 22 63 63 63 63 63
 63 64 64 64 64 99 99 99 99 87 87 5 12 12 22 22 22 22 22 22
 63 63 63 63 63 63 64 64 75 75 75 87 87 87 87 87 12 12 12 22
 22 22 22 22 22 22 63 63 63 63 63 63 75 75 75 75 87 87 87 87
 87 12 12 12 12 22 22 22 22 22 22 63 63 63 63 63 63 75 75 75
 75 87 87 87 87 87 12 12 12 12 22 22 22 22 22 22 63 63 63 63
 63 63 75 75 75 75 87 87 87 87 62 62 12 12 12 22 22 22 22 22
 22 63 63 63 63 63 63 75 75 75 48 87 87 87 87 62 62 62 12 12
 12 22 22 50 50 50 42 42 63 63 63 48 48 48 48 48 48 48 87 62
 62 62 62 12 12 12 22 50 50 50 50 42 42 42 63 48 48 48 48 48
 48 48 48 48 62 62 62 62 43 43 43 22 50 50 50 50 42 42 42 42
 48 48 48 48 48 48 48 48 48 62 62 62 62 43 43 43 77 77 77 77
 77 77 42 42 48 48 48 48 48 48 48 48 48 48 62 62 16 16 43 43
 16 77 77 77 77 77 77 77 77 48 48 48 48 48 48 48 48 48 48 48
 16 16 16 16 16 16 77 77 77 77 77 77 77 77 69 21 21 21 48 48
 48 48 48 48 48 16 16 16 16 16 16 16 77 77 96 96 77 77 69 69
 69 21 21 48 48 48 48 48 48 48 16 16 16 16 16 16 16 96 96 96