# vtk DataFile Version 2.0
Data set from ImportExport Version 6.5.141.ec284b7a5
ASCII

DATASET RECTILINEAR_GRID
DIMENSIONS 26 26 26
X_COORDINATES 26 float
-3.000000 3.000000 9.000000 15.000000 21.000000 27.000000 33.000000 39.000000 45.000000 51.000000 57.000000 63.000000 69.000000 75.000000 81.000000 87.000000 93.000000 99.000000 105.000000 111.000000 117.000000 
123.000000 129.000000 135.000000 141.000000 147.000000 
Y_COORDINATES 26 float
-3.000000 3.000000 9.000000 15.000000 21.000000 27.000000 33.000000 39.000000 45.000000 51.000000 57.000000 63.000000 69.000000 75.000000 81.000000 87.000000 93.000000 99.000000 105.000000 111.000000 117.000000 
123.000000 129.000000 135.000000 141.000000 147.000000 
Z_COORDINATES 26 float
-3.000000 3.000000 9.000000 15.000000 21.000000 27.000000 33.000000 39.000000 45.000000 51.000000 57.000000 63.000000 69.000000 75.000000 81.000000 87.000000 93.000000 99.000000 105.000000 111.000000 117.000000 
123.000000 129.000000 135.000000 141.000000 147.000000 
CELL_DATA 15625
SCALARS FeatureIds int 1
LOOKUP_TABLE default
 48 48 71 71 71 71 71 71 71 65 65 65 79 79 79 79 79 79 67 67
 67 67 67 67 67 48 48 71 71 71 71 71 71 71 65 65 65 79 79 79
 79 79 79 67 67 67 67 67 67 67 48 48 71 71 71 71 71 71 71 65
 65 65 79 79 79 79 79 79 79 67 67 67 67 67 67 48 48 10 10 71
 71 71 71 71 71 79 79 79 79 79 79 79 79 79 67 67 67 67 67 48
 48 48 10 10 10 71 71 71 71 71 40 40 40 40 79 79 79 79 80 80
 80 80 80 80 48 48 10 10 10 10 10 71 71 88 88 40 40 40 40 40
 79 79 79 80 80 80 80 80 80 48 48 10 10 10 10 10 88 88 88 88
 88 88 40 40 40 79 79 80 80 80 80 80 80 80 80 48 48 24 24 24
 24 88 88 88 88 88 88 88 40 40 79 79 80 80 80 80 80 80 80 80
 48 48 24 24 24 24 88 88 88 88 88 88 88 88 40 79 80 80 80 80
 80 80 80 80 80 48 48 24 24 24 88 88 88 88 88 88 88 88 88 88
 60 60 60 60 80 80 80 80 80 80 48 48 24 24 24 88 88 88 88 88
 88 88 88 88 18 60 60 60 60 60 60 60 60 60 60 91 91 91 24 88
 88 88 88 88 88 88 88 88 18 18 18 60 60 60 60 60 60 60 60 60
 91 91 91 91 91 88 88 88 88 88 88 88 18 18 18 18 18 60 60 60
 60 60 60 60 60 91 91 91 91 91 91 88 88 88 88 88 18 18 18 18
 18 18 60 60 60 60 60 60 60 60 91 91 91 91 91 91 91 88 88 88
 18 18 18 18 18 18 18 18 60 60 60 60 60 60 60 91 91 91 91 91
 91 91 91 64 64 64 64 18 18 18 18 18 18 60 60 60 60 60 60 60
 91 91 91 91 91 14 14 14 14 18 18 18 18 18 18 18 18 18 18 60
 60 60 60 60 60 91 91 91 91 14 14 14 14 14 18 18 18 18 18 18
 18 18 18 18 60 60 60 60 60 60 52 52 52 91 14 14 14 14 14 18
 18 18 18 18 18 18 18 18 18 67 67 67 67 67 67 52 52 52 52 14
 14 14 14 14 41 41 18 18 18 18 18 18 18 67 67 67 67 67 67 67
 52 52 52 52 83 83 83 83 83 41 41 41 51 51 18 18 18 67 67 67
 67 67 67 67 67 22 22 22 22 83 83 83 83 83 83 51 51 51 51 51
 62 62 62 67 67 67 67 67 67 67 22 22 22 6 83 83 83 83 6 6
 51 51 51 51 79 62 62 62 67 67 67 67 67 67 67 22 22 22 6 6
 83 6 6 6 6 79 79 79 79 79 62 62 62 62 67 67 67 67 67 67
 22 22 6 6 6 6 6 6 6 6 79 79 79 79 79 79 62 62 67 67
 67 67 67 67 67 38 6 6 6 6 6 6 6 6 79 79 79 79 79 79
 79 79 79 79 67 67 67 67 67 67 48 48 71 71 71 71 71 71 71 65
 65 79 79 79 79 79 79 79 79 67 67 67 67 67 67 48 48 71 71 71
 71 71 71 71 71 79 79 79 79 79 79 79 79 79 79 67 67 67 67 67
 48 10 10 10 71 71 71 71 71 9 79 79 79 79 79 79 79 79 79 79
 80 80 80 80 48 48 10 10 10 10 71 71 71 9 9 9 79 79 79 79
 79 79 79 80 80 80 80 80 80 48 48 10 10 10 10 10 71 9 9 9
 9 40 79 79 79 79 79 79 80 80 80 80 80 80 80 48 10 10 10 10
 10 88 9 9 9 88 88 88 40 40 79 79 79 80 80 80 80 80 80 80
 48 10 10 10 10 10 88 88 88 88 88 88 88 88 40 79 79 80 80 80
 80 80 80 80 80 48 10 24 24 24 88 88 88 88 88 88 88 88 88 88
 79 80 80 80 80 80 80 80 80 80 48 10 24 24 24 88 88 88 88 88
 88 88 88 88 88 60 60 60 60 80 80 80 80 80 80 48 10 24 24 88
 88 88 88 88 88 88 88 88 88 18 60 60 60 60 60 60 60 60 80 80
 58 91 91 91 88 88 88 88 88 88 88 88 88 18 18 18 60 60 60 60
 60 60 60 60 60 58 91 91 91 91 88 88 88 88 88 88 88 18 18 18
 18 60 60 60 60 60 60 60 60 60 58 91 91 91 91 91 88 88 88 88
 88 64 64 18 18 18 18 60 60 60 60 60 60 60 60 91 91 91 91 91
 91 91 88 88 88 64 64 64 18 18 18 18 60 60 60 60 60 60 60 60
 91 91 91 91 91 91 91 91 64 64 64 64 64 18 18 18 18 18 60 60
 60 60 60 60 60 91 91 91 91 91 91 91 91 64 64 64 64 64 18 18
 18 18 18 18 60 60 60 60 60 60 91 91 91 91 91 91 14 14 14 64
 64 64 64 18 18 18 18 18 18 60 60 60 60 60 60 52 52 52 91 91
 14 14 14 14 64 64 64 18 18 18 18 18 18 18 60 67 67 67 67 67
 52 52 52 52 6 14 6 6 41 41 41 41 18 18 18 18 18 18 67 67
 67 67 67 67 67 52 52 52 6 6 6 6 6 6 41 41 41 51 51 51
 18 18 18 67 67 67 67 67 67 67 22 22 22 6 6 6 6 6 6 6
 51 51 51 51 51 62 62 62 67 67 67 67 67 67 67 22 22 22 6 6
 6 6 6 6 6 51 51 51 51 79 62 62 62 62 67 67 67 67 67 67
 22 22 6 6 6 6 6 6 6 6 79 79 79 79 79 79 62 62 62 67
 67 67 67 67 67 22 22 6 6 6 6 6 6 6 6 79 79 79 79 79
 79 62 62 62 67 67 67 67 67 67 38 6 6 6 6 6 6 6 6 6
 79 79 79 79 79 79 79 79 79 79 67 67 67 67 67 38 38 71 71 71
 71 71 71 71 65 79 79 79 79 79 79 79 79 79 79 67 67 67 67 67
 38 71 71 71 71 71 71 71 71 71 79 79 79 79 79 79 79 79 79 79
 67 67 67 67 21 10 10 10 10 71 71 71 71 71 9 79 79 79 79 79
 79 79 79 79 79 80 80 80 80 21 10 10 10 10 10 71 71 71 9 9
 9 79 79 79 79 79 79 79 79 79 80 80 80 80 80 10 10 10 10 10
 10 71 9 9 9 9 79 79 79 79 79 79 79 79 80 80 80 80 80 80
 10 10 10 10 10 10 9 9 9 9 9 1 1 1 79 79 79 79 80 80
 80 80 80 80 80 10 10 10 10 10 10 9 9 9 9 9 1 1 1 1
 79 79 80 80 80 80 80 80 80 80 10 10 10 10 10 88 88 88 88 88
 88 1 1 1 1 79 79 80 80 80 80 80 80 80 80 10 10 10 24 10
 88 88 88 88 88 88 88 88 88 88 60 60 60 60 80 80 80 80 80 80
 58 58 10 24 3 3 3 3 88 88 88 88 88 88 18 60 60 60 60 60
 60 60 60 60 60 58 58 69 69 3 3 3 3 3 88 88 88 88 18 18
 60 60 60 60 60 60 60 60 60 60 58 58 69 69 69 3 3 3 3 88
 88 88 64 64 18 18 60 60 60 60 60 60 60 60 60 58 58 69 69 69
 69 3 3 3 88 64 64 64 64 18 18 18 60 60 60 60 60 60 60 58
 58 69 69 69 69 69 69 3 5 5 64 64 64 64 18 18 18 60 60 60
 60 60 60 60 58 58 69 69 69 69 69 69 69 5 5 64 64 64 64 18
 18 18 18 60 60 60 60 60 60 58 58 69 69 69 69 69 69 69 5 5
 64 64 64 64 18 18 18 18 18 60 60 60 60 60 58 58 69 69 69 69
 69 69 69 5 64 64 64 64 64 18 18 18 18 18 60 60 60 60 60 58
 52 52 52 69 69 69 69 6 41 41 41 41 64 18 18 18 18 18 18 60
 60 60 60 60 58 52 52 52 52 6 6 6 6 41 41 41 41 41 18 18
 18 18 18 18 67 67 67 67 67 67 52 52 52 6 6 6 6 6 6 41
 41 41 41 51 18 18 18 18 67 67 67 67 67 67 67 22 22 22 6 6
 6 6 6 6 41 41 41 51 51 51 79 62 62 62 67 67 67 67 67 67
 22 22 6 6 6 6 6 6 6 6 51 51 79 79 79 79 62 62 62 67
 67 67 67 67 67 22 6 6 6 6 6 6 6 6 6 79 79 79 79 79
 79 62 62 62 67 67 67 67 67 67 6 6 6 6 6 6 6 6 6 6
 79 79 79 79 79 79 79 62 62 67 67 67 67 67 67 38 6 6 6 6
 6 6 6 6 6 79 79 79 79 79 79 79 79 79 79 79 67 67 67 67
 38 38 6 6 6 6 6 6 6 6 79 79 79 79 79 79 79 79 79 79
 79 79 67 67 38 38 38 38 71 71 71 71 71 71 71 79 79 79 79 79
 79 79 79 79 79 79 79 67 21 21 21 21 10 10 71 71 71 71 9 9
 79 79 79 79 79 79 79 79 79 79 79 80 80 21 21 21 21 10 10 10
 71 71 71 9 9 9 79 79 79 79 79 79 79 79 79 80 80 80 80 21
 21 21 10 10 10 10 71 9 9 9 9 9 79 79 79 79 79 79 79 80
 80 80 80 80 80 21 10 10 10 10 10 9 9 9 9 9 1 1 1 79
 79 79 79 80 80 80 80 80 80 80 21 10 10 10 10 9 9 9 9 9
 9 1 1 1 1 79 79 79 80 80 80 80 80 80 80 21 21 10 10 10
 9 9 9 9 9 9 1 1 1 1 79 79 28 80 80 80 80 80 80 80
 21 21 10 10 10 88 88 88 88 9 88 88 88 1 1 60 60 60 60 80
 80 80 80 80 80 58 58 58 3 3 3 3 3 3 88 88 88 88 88 18
 60 60 60 60 60 60 60 60 80 80 58 58 58 3 3 3 3 3 3 88
 88 88 88 88 18 60 60 60 60 60 60 60 60 60 58 58 58 58 69 69
 3 3 3 3 88 88 64 64 64 64 18 60 60 60 60 60 60 60 60 58
 58 58 69 69 69 69 3 3 3 88 64 64 64 64 64 18 18 60 60 60
 60 60 60 60 58 58 58 69 69 69 69 69 69 5 5 64 64 64 64 64
 18 18 18 60 60 60 60 60 58 58 58 69 69 69 69 69 69 69 5 5
 64 64 64 64 64 18 18 18 60 60 60 60 60 58 58 58 58 69 69 69
 69 69 69 5 5 64 64 64 64 64 18 18 18 18 60 60 60 60 60 58
 58 58 69 69 69 69 69 69 5 5 64 64 64 64 64 18 18 18 18 18
 60 60 60 60 58 52 58 58 58 58 69 69 6 41 41 41 41 64 64 18
 18 18 18 18 18 60 60 60 60 58 52 52 52 6 6 6 6 6 6 41
 41 41 41 18 18 18 18 18 18 18 67 67 67 67 58 52 52 6 6 6
 6 6 6 6 41 41 41 41 18 18 18 18 18 18 67 67 67 67 67 67
 22 6 6 6 6 6 6 6 6 41 41 41 41 79 79 79 79 62 62 67
 67 67 67 67 67 6 6 6 6 6 6 6 6 6 6 41 41 79 79 79
 79 79 62 62 67 67 67 67 67 67 6 6 6 6 6 6 6 6 6 6
 6 79 79 79 79 79 79 79 62 67 67 67 67 67 67 6 6 6 6 6
 6 6 6 6 6 6 79 79 79 79 79 79 79 79 79 67 67 67 67 67
 38 38 38 6 6 6 6 6 6 6 6 79 79 79 79 79 79 79 79 79
 79 67 67 38 38 38 38 38 6 6 6 6 6 6 6 79 79 79 79 79
 79 79 79 79 79 79 79 38 38 38 38 38 38 71 71 6 6 6 6 6
 79 79 79 79 79 79 79 79 79 79 79 79 21 21 21 21 21 21 21 21
 71 71 6 9 9 79 79 79 79 79 79 79 79 79 79 79 79 21 21 21
 21 21 21 21 21 71 71 9 9 9 9 79 79 79 79 79 79 39 39 79
 79 80 80 21 21 21 21 21 21 21 10 9 9 9 9 9 79 79 79 79
 79 39 39 39 39 80 80 80 21 21 21 21 21 21 21 10 9 9 9 9
 9 1 1 1 79 79 39 39 39 80 80 80 80 80 21 21 21 21 21 21
 9 9 9 9 9 9 1 1 1 1 79 39 39 39 80 80 80 80 80 21
 21 21 21 21 21 9 9 9 9 9 9 1 1 1 1 28 28 28 28 80
 80 80 80 80 21 21 21 21 21 11 9 9 9 9 9 9 9 88 1 1
 28 28 28 28 80 80 80 80 80 80 58 21 58 3 3 3 3 3 3 88
 88 88 88 88 28 28 28 28 82 82 82 60 60 58 58 58 58 58 3 3
 3 3 3 3 88 88 88 88 64 64 64 60 60 82 82 82 60 60 58 58
 58 58 58 58 69 3 3 3 3 88 64 64 64 64 64 64 60 60 60 82
 60 60 60 58 58 58 58 58 69 69 69 69 3 3 64 64 64 64 64 64
 64 18 60 60 60 60 60 60 58 58 58 58 69 69 69 69 69 69 5 5
 64 64 64 64 64 64 18 18 60 60 60 60 60 58 58 58 58 69 69 69
 69 69 69 5 5 64 64 64 64 64 64 18 18 18 60 60 60 60 58 58
 58 58 58 69 69 69 69 69 5 5 64 64 64 64 64 18 18 18 18 60
 60 60 60 58 58 58 58 58 58 58 58 58 58 64 64 64 64 64 64 64
 18 18 18 18 18 60 60 61 58 58 58 58 58 58 58 58 6 6 41 41
 41 41 64 64 18 18 18 18 18 18 60 60 61 58 58 52 52 6 6 6
 6 6 6 6 41 41 41 41 18 18 18 18 18 18 66 66 67 89 89 89
 6 6 6 6 6 6 6 6 6 41 41 41 41 18 18 18 18 18 66 67
 67 67 67 89 63 6 6 6 6 6 6 6 6 6 6 41 41 79 79 79
 79 79 79 79 67 67 67 67 67 63 6 6 6 6 6 6 6 6 6 6
 85 41 79 79 79 79 79 79 79 79 67 67 67 67 63 6 6 6 6 6
 6 6 6 6 6 6 79 79 79 79 79 79 79 79 79 79 67 67 67 67
 6 6 6 6 6 6 6 6 6 6 6 79 79 79 79 79 79 79 79 79
 79 67 67 67 67 38 38 38 6 6 6 6 6 6 6 56 56 56 56 79
 79 79 79 79 79 79 79 47 38 38 38 38 38 38 6 6 6 6 6 6
 56 56 56 56 79 79 79 79 79 79 79 79 38 38 38 38 38 38 38 6
 6 6 6 6 56 56 56 56 56 79 79 79 79 79 79 79 79 21 21 21
 21 21 21 21 21 6 6 6 6 56 56 56 56 56 79 79 79 79 79 79
 79 79 21 21 21 21 21 21 21 21 21 21 9 9 9 56 56 56 79 79
 79 39 39 39 39 39 21 21 21 21 21 21 21 21 21 21 9 9 9 9
 9 56 56 79 79 39 39 39 39 39 39 21 21 21 21 21 21 21 21 21
 21 9 9 9 9 9 9 1 1 79 39 39 39 39 39 80 21 21 21 21
 21 21 21 21 21 21 9 9 9 9 9 9 1 1 1 39 39 39 39 39
 80 80 80 21 21 21 21 21 21 21 11 11 9 9 9 9 9 1 1 28
 28 28 28 28 28 80 80 80 21 21 21 21 21 21 11 11 11 11 9 9
 9 9 9 9 28 28 28 28 28 28 82 80 80 21 21 58 58 58 11 11
 11 11 11 11 11 88 88 88 64 28 28 28 28 82 82 82 82 58 58 58
 58 58 58 11 11 11 11 3 11 88 88 88 64 64 64 64 28 60 82 82
 82 60 58 58 58 58 58 58 58 69 11 11 3 3 64 64 64 64 64 64
 64 60 60 82 82 82 60 58 58 58 58 58 58 58 69 69 11 11 7 64
 64 64 64 64 64 64 18 44 44 82 60 60 58 58 58 58 58 58 58 69
 69 69 7 7 64 64 64 64 64 64 64 18 44 44 44 44 44 58 58 58
 58 58 58 58 69 69 69 23 7 5 64 64 64 64 64 64 18 18 44 44
 44 44 58 58 58 58 58 58 58 58 58 58 23 7 64 64 64 64 64 64
 64 18 18 44 44 44 61 61 58 58 58 58 58 58 58 58 58 23 7 64
 64 64 64 64 64 64 18 18 18 44 44 61 61 58 58 58 58 58 58 58
 58 58 23 23 64 64 64 64 64 64 18 18 18 18 66 66 61 61 58 58
 58 58 58 58 6 6 6 6 6 41 41 41 41 64 18 18 18 18 66 66
 66 66 89 89 89 58 6 6 6 6 6 6 6 6 6 41 41 85 85 18
 18 18 66 66 66 66 66 66 89 63 6 6 6 6 6 6 6 6 6 6
 85 85 85 79 79 79 79 79 66 66 66 66 66 63 63 6 6 6 6 6
 6 6 6 6 6 85 85 85 79 79 79 79 79 79 66 66 66 66 63 63
 6 6 6 6 6 6 6 6 6 6 85 85 79 79 79 79 79 79 79 79
 66 66 66 63 63 6 6 6 6 6 6 6 6 6 6 85 56 56 79 79
 79 79 79 79 79 79 79 67 67 63 38 38 38 6 6 6 6 6 6 6
 56 56 56 56 56 56 79 79 79 79 33 47 47 38 38 38 38 38 6 6
 6 6 6 6 6 56 56 56 56 56 56 79 79 79 79 33 47 47 38 38
 21 21 21 21 6 6 6 6 6 56 56 56 56 56 56 56 79 79 79 79
 47 47 21 21 21 21 21 21 21 21 21 6 6 6 56 56 56 56 56 56
 79 79 79 79 79 79 47 21 21 21 21 21 21 21 21 21 21 6 9 56
 56 56 56 56 56 79 39 39 39 39 39 21 21 21 21 21 21 21 21 21
 21 21 9 9 9 9 56 56 56 79 39 39 39 39 39 39 21 21 21 21
 21 21 21 21 21 21 21 9 9 9 9 9 1 56 79 39 39 39 39 39
 39 21 21 21 21 21 21 21 21 21 21 11 11 9 9 9 9 1 1 1
 39 39 39 39 39 80 21 21 21 21 21 21 21 21 21 11 11 11 11 11
 9 9 1 1 28 28 28 28 28 28 80 80 21 21 21 21 21 21 21 11
 11 11 11 11 11 11 9 9 9 28 28 28 28 28 28 82 82 21 21 21
 21 21 21 11 11 11 11 11 11 11 11 11 11 64 28 28 28 28 82 82
 82 82 58 58 58 58 58 58 11 11 11 11 11 11 11 11 11 64 64 64
 28 28 28 82 82 82 82 58 58 58 58 58 58 58 11 11 11 11 11 11
 11 64 64 64 64 64 60 82 82 82 82 82 58 58 58 58 58 58 58 58
 11 11 11 7 7 7 64 64 64 64 64 44 44 44 44 44 61 58 58 58
 58 58 58 58 58 23 23 7 7 7 7 64 64 64 64 64 44 44 44 44
 44 44 61 58 58 58 58 58 58 58 23 23 23 7 7 7 64 64 64 64
 64 44 44 44 44 44 44 61 58 58 58 58 58 58 58 23 23 23 7 7
 7 64 64 64 64 64 44 44 44 44 44 61 61 58 58 58 58 58 58 58
 23 23 23 7 7 7 64 64 64 64 64 18 18 44 44 61 61 61 58 58
 58 58 58 58 58 23 23 23 23 7 7 64 64 64 64 18 18 18 66 66
 66 61 61 89 58 58 58 58 58 58 6 23 23 23 7 85 85 85 64 18
 18 66 66 66 66 66 66 89 89 89 63 6 6 6 6 6 6 6 6 85
 85 85 85 85 85 66 66 66 66 66 66 66 66 89 63 6 6 6 6 6
 6 6 6 6 85 85 85 85 85 85 79 66 66 66 66 66 66 66 63 63
 6 6 6 6 6 6 6 6 6 85 85 85 85 85 79 79 79 66 66 66
 66 66 66 63 63 6 6 6 6 6 6 6 6 6 85 85 85 85 56 56
 79 79 79 66 66 66 66 66 63 63 6 6 6 6 6 6 6 6 6 85
 85 85 56 56 56 56 79 79 79 79 66 66 47 63 63 38 38 6 6 6
 6 6 6 6 85 85 56 56 56 56 56 56 79 79 33 33 47 47 47 38
 21 21 21 6 6 6 6 6 6 56 56 56 56 56 56 56 56 79 79 33
 33 47 47 47 38 21 21 21 21 21 6 6 6 6 56 56 56 56 56 56
 56 56 79 79 47 47 47 47 47 21 21 21 21 21 21 21 6 6 6 56
 56 56 56 56 56 56 56 79 79 47 47 47 47 21 21 21 21 21 21 21
 21 21 21 56 56 56 56 56 56 56 56 56 39 39 70 70 21 21 21 21
 21 21 21 21 21 21 21 21 9 56 56 56 56 56 56 56 39 39 39 39
 70 21 21 21 21 21 21 21 21 21 21 21 11 11 9 9 9 56 56 56
 39 39 39 39 70 70 21 21 21 21 21 21 21 21 21 11 11 11 11 11
 9 9 1 56 56 84 84 39 84 84 70 21 21 21 21 21 21 21 21 11
 11 11 11 11 11 11 11 13 13 84 84 84 84 84 84 80 21 21 21 21
 21 21 21 11 11 11 11 11 11 11 11 11 11 11 84 84 84 84 84 84
 82 82 21 21 21 21 21 11 11 11 11 11 11 11 11 11 11 11 11 84
 84 84 84 84 82 82 82 58 58 58 58 58 58 11 11 11 11 11 11 11
 11 11 50 50 84 84 84 84 82 82 82 82 58 58 58 58 58 58 11 11
 11 11 11 11 11 11 50 50 50 64 64 44 44 82 82 61 61 58 58 58
 58 58 58 58 58 11 11 11 7 7 7 50 50 64 64 64 44 44 44 44
 61 61 61 58 58 58 58 58 58 58 23 23 7 7 7 7 7 50 64 64
 64 44 44 44 44 44 61 61 58 58 58 58 58 58 58 23 23 7 7 7
 7 7 64 64 64 64 44 44 44 44 44 61 61 61 58 58 58 58 58 23
 23 23 23 7 7 7 7 64 64 64 64 44 44 44 44 44 61 61 61 58
 58 58 58 58 23 23 23 23 7 7 7 7 64 64 64 64 44 44 44 44
 61 61 61 61 58 58 58 58 58 23 23 23 23 23 7 7 92 92 92 64
 18 66 66 66 66 66 61 61 89 89 63 58 58 58 23 23 23 23 23 85
 92 92 92 92 92 66 66 66 66 66 66 66 89 89 89 63 63 63 6 6
 6 6 6 6 85 92 92 92 85 85 66 66 66 66 66 66 66 66 89 63
 63 63 6 6 6 6 6 6 6 85 85 85 85 85 85 20 66 66 66 66
 66 66 66 63 63 63 63 6 6 6 6 6 6 6 85 85 85 85 85 85
 20 20 66 66 66 66 66 66 63 63 63 63 6 6 6 6 6 6 6 85
 85 85 85 85 56 20 20 66 66 66 66 66 66 63 63 63 6 6 6 6
 6 6 6 6 85 85 85 56 56 56 56 56 79 66 66 33 33 47 63 63
 21 38 6 6 6 6 6 6 85 85 85 85 56 56 56 56 56 79 33 33
 33 47 47 47 47 21 21 21 6 6 6 6 6 6 85 56 56 56 56 56
 56 56 79 33 33 33 47 47 47 47 21 21 21 21 21 6 6 6 6 56
 56 56 56 56 56 56 56 79 47 47 47 47 47 47 21 21 21 21 21 21
 21 6 6 56 56 56 56 56 56 56 56 56 79 70 47 47 47 47 21 21
 21 21 21 21 21 21 21 21 56 56 56 56 56 56 56 56 56 70 70 70
 70 21 21 21 21 21 21 21 21 21 21 21 11 11 11 56 56 56 56 56
 56 56 70 70 70 70 70 21 21 21 21 21 21 21 21 21 11 11 11 11
 11 13 56 56 56 56 70 70 70 70 70 70 21 21 21 21 21 21 21 21
 11 11 11 11 11 11 13 13 56 56 84 84 84 70 70 70 81 21 21 21
 21 21 21 21 11 11 11 11 11 11 11 11 13 13 84 84 84 84 84 81
 81 81 21 21 21 21 21 21 11 11 11 11 11 11 11 11 11 11 11 84
 84 84 84 84 84 81 81 21 21 21 21 21 11 11 11 11 11 11 11 11
 11 11 11 11 84 84 84 84 84 84 81 81 58 58 58 58 58 11 11 11
 11 11 11 11 11 11 50 50 50 50 49 49 49 49 82 61 61 58 58 58
 58 58 58 11 11 11 11 11 11 11 50 50 50 50 50 49 49 49 44 61
 61 61 58 58 58 58 58 58 58 11 11 11 11 7 7 7 50 50 50 50
 50 44 44 44 61 61 61 61 58 58 58 58 58 58 23 23 23 7 7 7
 7 50 50 50 50 50 44 44 44 44 61 61 61 61 58 58 58 58 58 23
 23 23 7 7 7 7 7 50 50 50 44 44 44 44 44 61 61 61 61 58
 58 58 58 58 23 23 23 23 7 7 7 7 50 50 64 64 44 44 44 44
 61 61 61 61 58 58 58 58 58 23 23 23 23 7 7 7 7 50 50 64
 64 44 44 44 44 61 61 61 61 58 58 58 58 23 23 23 23 23 23 7
 7 7 92 92 92 66 66 66 66 66 66 61 61 61 63 63 63 63 23 23
 23 23 23 23 85 92 92 92 92 92 66 66 66 66 66 66 66 66 89 63
 63 63 63 63 23 23 23 23 85 85 92 92 92 92 85 85 66 66 66 66
 66 66 66 63 63 63 63 63 63 6 6 6 6 85 85 92 92 85 85 85
 20 66 66 66 66 66 66 66 63 63 63 63 63 6 6 6 6 6 85 85
 85 85 85 85 20 20 20 66 66 66 66 66 66 63 63 63 63 63 6 6
 6 6 6 85 85 85 85 85 85 20 20 20 66 66 66 66 66 66 63 63
 63 63 6 6 6 6 6 6 85 85 85 85 85 56 56 20 20 79 66 66
 33 33 47 63 63 63 63 63 6 6 6 6 6 85 85 85 85 85 56 56
 56 20 79 33 33 33 47 47 47 47 21 21 21 21 6 6 6 6 85 85
 85 56 56 56 56 56 56 56 33 33 47 47 47 47 47 21 21 21 21 21
 6 6 6 85 85 56 56 56 56 56 56 56 56 70 47 47 47 47 47 21
 21 21 21 21 21 21 21 6 56 56 56 56 56 56 56 56 56 70 70 70
 70 47 47 21 21 21 21 21 21 21 21 21 21 11 56 56 56 56 56 56
 56 70 70 70 70 70 70 21 21 21 21 21 21 21 21 21 11 11 11 11
 11 56 56 56 56 56 70 70 70 70 70 70 21 21 21 21 21 21 21 21
 11 11 11 11 11 11 13 13 56 56 70 70 70 70 70 70 70 21 21 21
 21 21 21 21 11 11 11 11 11 11 11 13 13 13 56 84 84 81 81 81
 81 81 81 21 21 21 21 21 11 11 11 11 11 11 11 13 13 13 13 13
 13 84 81 81 81 81 81 81 21 21 21 21 11 11 11 11 11 11 11 11
 13 13 13 13 13 84 84 84 81 81 81 81 81 21 21 58 11 11 11 11
 11 11 11 11 11 11 13 13 13 50 49 49 49 49 81 81 81 58 58 58
 58 58 11 11 11 11 11 11 11 11 11 50 50 50 50 49 49 49 49 49
 61 61 58 58 58 58 58 58 11 11 11 11 11 11 11 50 50 50 50 50
 50 49 49 49 61 61 61 61 58 58 58 58 58 58 11 11 11 11 7 7
 50 50 50 50 50 50 49 49 61 61 61 61 61 58 58 58 58 58 58 23
 23 23 7 7 7 7 50 50 50 50 50 44 44 61 61 61 61 61 61 58
 58 58 58 58 23 23 23 7 7 7 7 7 50 50 50 50 44 44 44 61
 61 61 61 61 58 58 58 58 23 23 23 23 23 7 7 7 7 50 50 50
 50 44 44 44 61 61 61 61 61 58 58 58 58 23 23 23 23 23 7 7
 7 7 50 50 50 50 44 44 61 61 61 61 61 61 58 63 58 58 23 23
 23 23 23 23 7 7 7 85 85 85 66 66 66 66 66 66 61 61 63 63
 63 63 63 23 23 23 23 23 23 85 85 85 85 85 85 66 66 66 66 66
 66 66 66 63 63 63 63 63 63 23 23 23 23 85 85 92 92 92 92 85
 85 66 66 66 66 66 66 66 63 63 63 63 63 63 63 6 6 85 85 85
 92 92 92 85 85 20 66 66 66 66 66 66 66 63 63 63 63 63 63 63
 6 6 85 85 85 85 85 85 85 20 20 20 66 66 66 66 66 66 63 63
 63 63 63 63 6 6 6 6 85 85 85 85 85 85 20 20 20 20 66 66
 66 66 66 63 63 63 63 63 63 6 6 6 6 85 85 85 85 85 85 20
 20 20 20 66 66 33 47 47 63 63 63 63 63 63 6 6 6 85 85 85
 85 85 85 85 56 20 20 20 33 33 47 47 47 47 47 63 63 63 63 6
 6 6 85 85 85 85 85 56 56 56 56 56 70 47 47 47 47 47 47 47
 21 21 21 21 21 6 6 55 85 85 56 56 56 56 56 56 56 70 70 70
 47 47 47 47 21 21 21 21 21 21 21 74 74 74 56 56 56 56 56 56
 56 70 70 70 70 70 70 47 47 21 21 21 21 21 21 21 74 74 74 74
 56 56 56 56 56 70 70 70 70 70 70 70 70 21 21 21 21 21 21 21
 21 11 11 11 11 13 56 56 56 56 70 70 70 70 70 70 70 70 21 21
 21 21 21 21 21 11 11 11 11 11 13 13 13 56 56 70 70 70 70 70
 70 70 70 21 21 21 21 21 21 11 11 11 11 11 11 13 13 13 13 13
 70 81 81 81 81 81 81 70 21 21 21 21 21 11 11 11 11 11 11 11
 13 13 13 13 13 13 81 81 81 81 81 81 81 21 21 21 11 11 11 11
 11 11 11 11 11 13 13 13 13 13 13 81 81 81 81 81 81 81 81 21
 58 11 11 11 11 11 11 11 11 11 13 13 13 50 50 50 49 49 49 81
 81 81 81 58 58 58 11 11 11 11 11 11 11 11 11 50 50 50 50 50
 50 49 49 49 49 61 61 61 58 58 58 58 11 11 11 11 11 11 11 50
 50 50 50 50 50 50 49 49 49 61 61 61 61 58 58 58 58 58 11 11
 11 11 11 50 50 50 50 50 50 50 50 50 49 61 61 61 61 61 61 58
 58 58 58 58 23 23 11 7 7 7 50 50 50 50 50 50 50 61 61 61
 61 61 61 61 58 58 58 58 58 23 23 23 7 7 7 7 50 50 50 50
 50 50 44 61 61 61 61 61 61 58 58 58 58 23 23 23 23 23 7 7
 7 7 50 50 50 50 44 44 61 61 61 61 61 61 58 58 58 58 23 23
 23 23 23 7 7 7 7 50 50 50 50 61 61 61 61 61 61 61 61 58
 63 63 63 23 23 23 23 23 23 7 7 7 85 85 85 66 66 66 66 66
 66 61 61 63 63 63 63 63 63 23 23 23 23 23 85 85 85 85 85 85
 66 66 66 66 66 66 66 63 63 63 63 63 63 63 63 23 23 23 85 85
 85 85 85 85 85 85 66 66 66 66 66 66 63 63 63 63 63 63 63 63
 63 6 85 85 85 85 92 85 85 85 20 66 66 66 66 66 66 66 63 63
 63 63 63 63 63 63 6 85 85 85 85 85 85 85 20 20 20 66 66 66
 66 66 66 63 63 63 63 63 63 63 63 6 85 85 85 85 85 85 85 20
 20 20 66 66 66 66 66 66 63 63 63 63 63 63 63 63 6 85 85 85
 85 85 85 85 20 20 20 20 66 66 66 47 47 63 63 63 63 63 63 63
 6 55 85 85 85 85 85 85 85 85 20 20 70 33 33 47 47 47 47 47
 63 63 63 63 63 55 55 55 85 85 85 85 85 56 56 56 56 70 70 47
 47 47 47 47 47 21 21 21 21 21 55 55 55 55 85 72 72 72 56 56
 56 56 70 70 70 70 47 47 47 21 21 21 21 21 21 74 74 74 74 72
 72 72 72 56 56 56 70 70 70 70 70 70 47 47 21 21 21 21 21 21
 74 74 74 74 74 72 72 72 43 43 70 70 70 70 70 70 70 70 70 21
 21 21 21 21 21 74 74 74 74 74 74 72 43 43 43 70 70 70 70 70
 70 70 70 21 21 21 21 21 21 11 11 11 11 11 11 13 13 13 43 43
 70 70 70 70 70 70 70 70 21 21 21 21 21 11 11 11 11 11 11 11
 13 13 13 13 43 70 70 81 81 81 81 81 70 21 21 21 21 11 11 11
 11 11 11 11 11 13 13 13 13 13 13 81 81 81 81 81 81 81 81 21
 21 11 11 11 11 11 11 11 11 11 13 13 13 13 13 13 81 81 81 81
 81 81 81 81 21 11 11 11 11 11 11 11 11 11 11 13 13 13 13 13
 13 81 81 81 81 81 81 81 58 58 58 11 11 11 11 11 11 11 11 11
 50 50 50 50 50 50 49 49 49 49 61 61 61 58 58 58 58 11 11 11
 11 11 11 11 50 50 50 50 50 50 50 50 49 49 61 61 61 61 58 58
 58 58 58 11 11 11 11 11 50 50 50 50 50 50 50 50 50 49 61 61
 61 61 61 61 58 58 58 58 42 42 11 11 37 37 37 50 50 50 50 50
 50 50 61 61 61 61 61 61 61 58 58 58 58 42 23 23 23 37 37 37
 37 50 50 50 50 50 50 61 61 61 61 61 61 61 58 58 58 58 23 23
 23 23 37 37 37 37 37 50 50 50 50 61 61 61 61 61 61 61 61 58
 58 58 58 23 23 23 23 23 37 37 37 37 50 50 50 50 86 61 61 61
 61 61 61 61 63 63 63 63 23 23 23 23 23 23 37 37 37 85 85 86
 86 86 66 66 61 61 61 17 17 63 63 63 63 63 23 23 23 23 23 85
 85 85 85 85 85 66 66 66 66 66 66 66 17 17 63 63 63 63 63 63
 63 23 23 85 85 85 85 85 85 85 85 66 66 66 66 66 66 63 63 63
 63 63 63 63 63 63 23 85 85 85 85 85 85 85 85 20 66 66 66 66
 66 66 63 63 63 63 63 63 63 63 63 63 85 85 85 85 85 85 85 85
 20 20 66 66 66 66 66 63 63 63 63 63 63 63 63 63 63 85 85 85
 85 85 85 85 20 20 20 66 66 66 66 66 63 63 63 63 63 63 63 63
 63 63 85 85 85 85 85 85 85 20 20 20 66 66 66 66 47 63 63 63
 63 63 63 63 63 55 55 55 85 85 85 85 85 85 85 20 20 70 70 33
 47 47 47 47 47 63 63 63 63 63 55 55 55 55 85 72 72 72 56 56
 56 93 70 70 70 47 47 47 47 47 63 21 63 63 55 55 55 55 55 55
 72 72 72 72 56 56 70 70 70 70 70 70 47 47 21 21 21 21 74 74
 74 55 55 55 74 72 72 72 72 43 43 70 70 70 70 70 70 70 70 21
 21 21 21 74 74 74 74 74 74 74 72 72 72 43 43 43 70 70 70 70
 70 70 70 70 21 21 21 21 54 74 74 74 74 74 74 74 43 43 43 43
 43 70 70 70 70 70 70 70 70 21 21 21 54 54 74 74 74 74 74 74
 74 43 43 43 43 43 70 70 70 70 70 70 70 70 21 21 54 54 54 11
 11 11 11 11 11 11 13 43 43 43 43 43 81 81 81 81 81 70 70 21
 54 54 11 11 11 11 11 11 11 11 13 13 13 43 43 43 81 81 81 81
 81 81 81 81 21 11 11 11 11 11 11 11 11 11 11 13 13 13 13 43
 43 81 81 81 81 81 81 81 81 21 11 11 11 11 11 11 11 11 11 11
 13 13 13 50 50 50 57 57 57 57 57 57 57 58 58 11 11 11 11 11
 11 11 11 11 11 50 50 50 50 50 50 50 57 57 57 57 57 61 58 58
 58 58 42 11 11 11 11 11 11 50 50 50 50 50 50 50 50 8 8 8
 61 61 61 58 58 58 42 42 42 11 11 11 11 50 50 50 50 50 50 50
 50 50 8 8 8 61 61 61 61 58 58 42 42 42 42 42 11 37 37 37
 50 50 50 50 50 50 50 61 61 61 61 61 61 61 58 42 42 42 42 42
 42 37 37 37 37 37 50 50 50 50 50 50 61 61 61 61 61 61 61 58
 42 42 42 42 42 23 23 37 37 37 37 37 50 50 50 50 61 61 61 61
 61 61 61 61 42 42 42 42 42 23 23 23 37 37 37 37 37 50 50 86
 86 86 86 61 61 61 61 61 17 17 63 63 63 63 23 23 23 23 23 37
 37 37 85 86 86 86 86 86 86 61 61 17 17 17 17 63 63 63 63 63
 23 23 23 23 37 85 85 85 86 86 86 86 66 34 34 17 17 17 17 17
 63 63 63 63 63 63 23 23 85 85 85 85 85 85 86 86 86 66 34 34
 66 17 17 17 63 63 63 63 63 63 63 63 85 85 85 85 85 85 85 85
 86 66 66 34 34 34 66 63 63 63 63 63 63 63 63 63 63 36 36 36
 85 85 85 85 85 20 20 66 66 34 66 66 63 63 63 63 63 63 63 63
 63 63 36 36 36 36 85 85 85 85 20 20 66 66 34 66 66 63 63 63
 63 63 63 63 63 63 63 36 36 36 85 85 85 85 85 20 20 66 66 34
 66 47 63 63 63 63 63 63 63 63 55 55 55 36 36 85 85 85 85 93
 93 93 93 70 33 47 47 47 47 47 63 63 63 76 55 55 55 55 55 55
 72 72 72 72 93 93 93 93 70 70 47 47 47 47 47 63 76 76 76 55
 55 55 55 55 55 72 72 72 72 72 93 93 70 70 70 70 70 47 47 26
 78 78 78 74 74 74 55 55 55 74 72 72 72 72 43 43 70 70 70 70
 70 70 70 26 26 78 78 54 74 74 74 74 74 74 74 72 72 72 43 43
 43 43 70 70 70 70 70 70 26 26 54 54 54 54 74 74 74 74 74 74
 74 43 43 43 43 43 43 70 70 70 70 70 70 26 26 54 54 54 54 54
 74 74 74 74 74 74 43 43 43 43 43 43 70 70 70 70 70 70 26 26
 54 54 54 54 54 74 74 74 74 74 43 43 43 43 43 43 43 81 81 81
 81 81 81 26 26 54 54 54 54 54 11 11 11 11 11 43 43 43 43 43
 43 43 57 57 57 57 57 57 57 26 54 54 54 54 11 11 11 11 11 11
 11 13 43 43 43 43 57 57 57 57 57 57 57 57 57 11 11 11 11 11
 11 11 11 11 11 11 13 13 43 43 43 57 57 57 57 57 57 57 57 57
 42 42 42 11 11 11 11 11 11 11 50 50 50 50 50 50 57 57 57 57
 57 57 57 57 42 42 42 42 42 11 11 11 11 11 50 50 50 50 50 50
 50 50 8 8 8 8 8 8 8 42 42 42 42 42 42 11 11 11 50 50
 50 50 50 50 50 50 8 8 8 8 8 8 8 42 42 42 42 42 42 42
 42 15 15 37 37 50 50 50 50 50 50 50 8 8 8 8 8 61 42 42
 42 42 42 42 42 42 15 15 37 37 37 50 50 50 50 50 45 8 8 8
 8 61 61 42 42 42 42 42 42 42 42 15 15 37 37 37 37 50 50 86
 86 86 86 61 61 61 61 61 42 42 42 42 42 42 42 42 42 15 37 37
 37 37 86 86 86 86 86 86 45 45 61 17 17 17 42 63 42 42 42 42
 42 42 23 37 37 37 37 86 86 86 86 86 86 45 45 61 17 17 17 17
 63 63 63 63 63 63 23 23 75 75 75 85 86 86 86 86 86 86 34 34
 34 17 17 17 17 63 63 63 63 63 63 63 75 75 36 85 85 85 86 86
 86 86 86 34 34 34 17 17 17 17 63 63 63 63 63 63 63 36 36 36
 36 85 85 86 86 86 86 34 34 34 34 32 32 63 63 63 63 63 63 63
 63 63 36 36 36 36 85 85 85 85 86 86 34 34 34 34 32 32 63 63
 63 63 63 63 63 63 63 36 36 36 36 85 85 85 85 86 86 34 34 34
 34 32 63 63 63 63 63 63 63 63 63 63 36 36 36 36 85 85 85 85
 20 20 34 34 34 34 32 63 63 63 76 76 76 76 76 55 55 55 55 36
 36 72 72 93 93 93 93 93 93 59 59 59 59 59 59 76 76 76 76 76
 55 55 55 55 55 72 72 72 93 93 93 93 93 93 93 59 59 59 59 26
 76 76 76 76 76 55 55 55 55 55 72 72 72 72 93 93 93 93 93 70
 70 70 26 26 26 78 78 78 78 74 55 55 55 55 55 72 72 72 43 43
 93 93 70 70 70 70 70 26 26 26 78 78 78 78 74 74 74 74 74 74
 72 72 72 43 43 43 43 70 70 70 70 70 26 26 26 78 78 78 54 74
 74 74 74 74 74 74 43 43 43 43 43 43 70 70 70 70 70 26 26 26
 54 54 54 54 54 74 74 74 74 74 74 43 43 43 43 43 43 70 70 70
 70 70 26 26 26 54 54 54 54 54 74 74 74 74 74 43 43 43 43 43
 43 43 57 57 57 57 57 57 26 26 54 54 54 54 54 54 74 74 74 74
 43 43 43 43 43 43 43 57 57 57 57 57 57 57 26 54 54 54 54 54
 11 11 11 11 11 43 43 43 43 43 43 57 57 57 57 57 57 57 57 57
 54 54 54 11 11 11 11 11 11 11 11 43 43 43 43 43 57 57 57 57
 57 57 57 57 57 42 42 42 42 11 11 11 11 11 35 50 50 50 50 50
 43 57 57 57 57 57 57 57 57 42 42 42 42 42 42 11 11 11 35 35
 35 50 50 50 50 50 8 8 8 8 8 8 8 8 42 42 42 42 42 42
 42 15 35 35 35 35 50 50 50 50 50 8 8 8 8 8 8 8 42 42
 42 42 42 42 42 42 15 15 15 35 35 50 50 50 50 8 8 8 8 8
 8 8 8 42 42 42 42 42 42 42 42 15 15 15 15 35 35 50 50 86
 45 45 45 8 8 8 8 8 42 42 42 42 42 42 42 42 15 15 15 15
 35 35 50 86 86 86 45 45 45 45 45 8 42 42 42 42 42 42 42 42
 42 15 15 15 15 37 37 86 86 86 86 86 45 45 45 45 17 17 17 42
 42 42 42 42 42 42 42 15 15 75 75 86 86 86 86 86 86 86 45 45
 45 17 17 17 17 17 63 42 42 42 42 42 75 75 75 75 75 86 86 86
 86 86 86 45 45 17 17 17 17 17 63 63 63 63 63 63 63 75 75 75
 75 75 86 86 86 86 86 86 34 34 32 32 17 17 17 63 63 63 63 63
 63 63 75 75 75 75 75 75 86 86 86 86 86 34 34 32 32 32 32 63
 63 63 63 63 63 63 63 36 36 36 36 75 85 86 86 86 86 86 34 34
 32 32 32 63 63 63 63 63 63 63 63 63 36 36 36 36 75 85 85 86
 86 86 86 34 34 32 32 32 63 63 63 63 63 63 63 63 36 36 36 36
 36 36 85 93 93 93 93 93 93 59 59 59 59 63 63 76 76 76 76 76
 76 55 55 55 36 36 72 93 93 93 93 93 93 93 59 59 59 59 59 59
 76 76 76 76 76 55 55 55 55 55 72 72 93 93 93 93 93 93 93 93
 59 59 59 59 59 76 76 76 76 76 55 55 55 55 55 74 72 72 93 93
 93 93 93 93 93 59 59 59 26 26 78 78 78 78 78 55 55 55 55 55
 74 72 72 43 93 93 93 93 93 93 70 26 26 26 26 78 78 78 78 78
 74 74 74 74 74 74 43 43 43 43 43 43 93 70 70 70 26 26 26 26
 78 78 78 78 78 74 74 74 74 74 74 43 43 43 43 43 43 43 70 70
 70 26 26 26 26 78 78 54 54 54 74 74 74 74 74 74 43 43 43 43
 43 43 43 57 57 57 57 26 26 26 78 54 54 54 54 74 74 74 74 74
 43 43 43 43 43 43 43 57 57 57 57 57 57 26 26 78 54 54 54 54
 54 74 74 74 74 43 43 43 43 43 43 43 57 57 57 57 57 57 57 26
 54 54 54 54 54 11 11 11 11 11 43 43 43 43 43 43 57 57 57 57
 57 57 57 57 57 42 54 54 54 11 11 11 11 35 35 35 43 43 43 43
 43 57 57 57 57 57 57 57 57 57 42 42 42 42 42 11 11 11 35 35
 35 35 43 43 43 43 57 57 57 57 57 57 57 57 42 42 42 42 42 42
 42 11 35 35 35 35 35 35 19 19 8 8 8 8 8 8 8 8 8 42
 42 42 42 42 42 42 15 35 35 35 35 35 35 19 19 8 8 8 8 8
 8 8 8 42 42 42 42 42 42 42 42 15 15 15 35 35 35 35 35 35
 45 8 8 8 8 8 8 8 42 42 42 42 42 42 42 42 15 15 15 35
 35 35 35 35 45 45 45 45 8 8 8 8 8 42 42 42 42 42 42 42
 42 15 15 15 15 35 35 35 86 86 45 45 45 45 45 45 8 42 42 42
 42 42 42 42 42 42 15 15 15 15 35 35 86 86 86 86 45 45 45 45