# vtk DataFile Version 2.0
Data set from IO Version 6.4.197.9a0dee2
ASCII

DATASET RECTILINEAR_GRID
DIMENSIONS 31 31 31
X_COORDINATES 31 float
-4.116666 4.116666 12.349998 20.583330 28.816664 37.049999 45.283329 53.516663 61.749996 69.983322 78.216660 86.449989 94.683319 102.916656 111.149986 119.383324 127.616653 135.849991 144.083313 152.316650 160.549988 
168.783310 177.016647 185.249985 193.483307 201.716644 209.949982 218.183319 226.416641 234.649979 242.883316 
Y_COORDINATES 31 float
-4.116666 4.116666 12.349998 20.583330 28.816664 37.049999 45.283329 53.516663 61.749996 69.983322 78.216660 86.449989 94.683319 102.916656 111.149986 119.383324 127.616653 135.849991 144.083313 152.316650 160.549988 
168.783310 177.016647 185.249985 193.483307 201.716644 209.949982 218.183319 226.416641 234.649979 242.883316 
Z_COORDINATES 31 float
-4.116666 4.116666 12.349998 20.583330 28.816664 37.049999 45.283329 53.516663 61.749996 69.983322 78.216660 86.449989 94.683319 102.916656 111.149986 119.383324 127.616653 135.849991 144.083313 152.316650 160.549988 
168.783310 177.016647 185.249985 193.483307 201.716644 209.949982 218.183319 226.416641 234.649979 242.883316 
CELL_DATA 27000
SCALARS FeatureIds int 1
LOOKUP_TABLE default
 237 237 237 237 121 121 121 121 121 173 173 173 173 136 190 190 190 190 190 190
 317 317 376 376 376 376 376 376 376 186 237 237 237 237 121 121 121 121 169 169
 173 173 173 190 190 190 190 190 190 190 317 99 99 376 376 376 376 376 248 186
 306 237 237 340 340 340 340 340 169 169 169 169 190 190 190 190 190 190 225 225
 225 99 99 99 99 9 9 248 248 248 306 306 217 217 340 340 340 169 169 169
 169 169 230 92 92 92 92 225 225 225 225 225 99 99 99 9 248 248 83 83
 306 306 306 217 217 340 340 169 169 169 169 230 230 92 92 92 92 225 225 225
 225 225 99 99 9 9 248 248 248 83 306 255 255 217 217 217 340 169 169 169
 230 230 230 92 92 92 92 225 225 225 225 225 229 229 9 9 248 248 248 306
 255 255 255 255 255 217 340 169 169 169 230 138 138 138 92 92 92 225 225 225
 225 225 354 354 354 354 248 248 248 306 69 255 255 255 255 255 283 283 283 350
 230 138 138 138 138 92 92 225 225 225 225 225 354 354 354 81 81 81 69 69
 69 69 255 255 255 255 283 283 283 350 350 138 138 138 138 92 92 225 225 225
 225 225 354 354 81 81 81 81 69 69 69 69 255 255 255 283 283 283 283 350
 350 350 138 138 138 138 240 240 240 240 240 243 354 81 81 81 81 81 69 69
 69 51 51 51 51 350 350 350 350 350 350 350 350 138 138 240 240 240 240 240
 240 243 81 81 81 81 81 81 69 69 51 51 51 51 51 350 350 350 350 350
 350 350 350 350 165 240 240 240 240 240 176 176 81 81 81 81 81 81 69 69
 51 51 51 51 262 350 350 350 350 350 350 350 350 165 165 165 165 240 240 176
 176 176 176 81 81 233 233 233 233 233 51 51 51 262 262 262 262 350 350 350
 350 350 350 165 165 165 165 176 176 176 176 176 176 201 81 233 233 233 233 233
 314 314 314 262 262 262 262 262 350 350 261 261 261 261 165 165 165 176 176 176
 176 176 201 201 201 233 233 233 233 233 314 314 314 262 262 262 262 294 294 294
 261 261 261 261 165 77 77 77 176 176 176 176 201 201 201 233 233 233 233 233
 314 314 314 262 262 262 262 294 294 294 294 261 261 261 80 77 77 77 77 77
 264 264 201 201 201 310 310 310 310 213 213 314 314 262 262 262 294 294 294 294
 294 294 80 80 80 77 77 77 77 77 304 304 304 304 28 28 310 310 310 213
 213 35 35 364 262 262 294 294 215 215 215 215 80 80 80 77 77 77 77 77
 304 304 304 304 28 28 28 310 310 213 35 35 35 364 364 364 364 215 215 215
 215 215 80 80 80 80 77 77 77 181 304 304 304 28 28 28 28 28 310 35
 35 35 35 364 364 364 364 215 215 215 215 215 80 80 80 80 77 77 181 181
 181 373 373 28 28 28 28 28 28 35 35 35 364 364 364 364 364 215 215 215
 215 215 80 80 80 80 80 181 181 181 373 373 373 373 28 28 28 98 98 35
 258 258 364 364 96 96 96 96 189 189 189 189 80 80 80 80 181 181 181 373
 373 373 373 373 373 98 98 98 98 258 258 258 147 96 96 96 96 96 189 189
 189 189 372 372 372 372 78 373 373 373 373 373 373 373 373 98 98 98 98 258
 147 147 147 147 96 96 96 96 189 189 189 372 372 372 372 372 78 78 373 373
 373 373 373 373 376 98 98 98 98 98 147 147 147 341 341 341 341 341 341 327
 327 344 372 372 372 78 78 78 373 373 373 373 373 373 376 376 376 98 98 98
 147 147 147 341 341 341 341 341 341 327 344 344 312 312 312 78 78 78 78 373
 373 373 373 376 376 376 376 376 98 98 147 147 341 341 341 341 341 341 341 327
 344 344 312 312 312 78 78 78 78 78 373 373 376 376 376 376 376 376 376 376
 237 237 341 341 341 341 341 341 341 173 173 136 136 136 136 190 190 190 190 190
 317 376 376 376 376 376 376 376 376 376 237 237 237 341 341 341 341 341 341 173
 173 173 136 136 136 190 190 190 190 190 317 317 376 376 376 376 376 376 376 376
 186 186 237 121 121 121 121 121 121 173 173 173 190 190 190 190 190 190 190 190
 317 317 317 376 376 376 376 376 186 186 186 186 237 121 121 121 121 121 169 169
 169 173 190 190 190 190 190 190 190 190 317 317 317 376 376 376 376 186 186 186
 186 186 237 121 121 121 121 121 169 169 169 169 190 190 190 190 190 190 190 225
 225 229 229 229 99 248 248 248 248 186 306 306 217 217 340 340 340 169 169 169
 169 169 190 190 190 92 92 225 225 225 225 229 229 229 286 248 248 248 248 83
 306 306 255 217 340 340 340 169 169 169 169 169 230 92 92 92 92 225 225 225
 225 229 229 229 286 248 248 248 248 248 306 255 255 255 255 319 319 24 24 24
 24 24 230 92 92 92 92 225 225 225 225 229 229 229 286 286 248 248 248 248
 255 255 255 255 255 319 319 24 24 24 24 138 138 138 92 92 92 225 225 225
 225 229 229 354 354 354 286 248 248 248 69 255 255 255 255 255 283 283 24 24
 24 138 138 138 92 92 92 225 225 225 225 225 354 354 354 354 354 69 69 69
 69 255 255 255 255 255 283 283 283 283 283 138 138 138 138 92 92 240 225 225
 225 354 354 354 354 354 81 69 69 69 69 69 255 255 255 255 283 283 283 283
 283 350 138 138 138 138 240 240 240 240 243 243 354 354 354 81 81 69 69 69
 69 69 51 51 255 350 350 283 283 283 283 350 350 200 200 240 240 240 240 240
 243 243 243 81 81 81 81 69 69 69 69 51 51 51 51 350 350 350 283 283
 350 350 350 200 206 240 240 240 240 240 243 243 243 81 81 81 81 81 69 69
 51 51 51 51 262 262 350 350 350 350 350 350 350 159 165 165 240 240 176 176
 176 176 243 243 81 233 233 233 233 233 314 314 314 262 262 262 262 350 350 350
 350 350 159 159 165 165 165 176 176 176 176 176 201 201 201 233 233 233 233 233
 314 314 314 262 262 262 262 262 350 350 261 261 261 159 159 165 176 176 176 176
 176 176 201 201 201 233 233 233 233 314 314 314 314 262 262 262 262 262 294 294
 261 261 261 261 159 3 3 3 176 176 176 201 201 201 201 201 310 310 310 314
 314 314 314 262 262 262 262 294 294 294 294 261 80 80 80 80 77 77 77 176
 264 264 201 201 201 310 310 310 310 310 314 314 314 262 262 262 262 294 294 294
 294 80 80 80 80 80 77 77 77 77 264 264 264 201 28 28 310 310 310 310
 213 35 314 364 262 262 294 294 294 294 215 80 80 80 80 80 80 77 77 264
 264 264 264 28 28 28 28 310 310 310 35 35 364 364 364 364 166 166 215 215
 215 80 80 80 80 80 80 77 181 181 181 304 304 28 28 28 28 28 310 310
 35 35 364 364 364 364 364 215 215 215 215 80 80 80 80 80 80 181 181 181
 181 373 373 28 28 28 28 28 310 35 35 6 364 364 364 364 364 153 215 215
 215 80 80 80 80 80 80 181 181 181 181 373 373 373 28 28 28 28 28 258
 258 258 6 364 96 96 96 153 189 189 189 80 80 80 80 80 80 181 181 181
 181 373 373 373 373 98 98 98 258 258 258 258 147 96 96 96 153 153 153 189
 189 189 80 80 80 78 78 78 373 373 373 373 373 373 373 376 98 98 258 258
 147 147 147 147 96 96 153 153 153 153 344 344 344 372 372 78 78 78 78 373
 373 373 373 373 376 376 376 98 258 258 147 147 147 341 341 341 341 153 153 344
 344 344 344 344 78 78 78 78 78 78 373 373 373 376 376 376 376 376 98 98
 147 147 147 341 341 341 341 341 341 344 344 344 344 312 312 78 78 78 78 78
 373 373 376 376 376 376 376 376 376 376 147 147 341 341 341 341 341 341 341 344
 344 344 312 312 312 78 78 78 78 78 78 317 376 376 376 376 376 376 376 376
 237 237 341 341 341 341 341 341 341 344 344 344 312 312 190 190 190 190 78 78
 317 317 376 376 376 376 376 376 376 376 237 237 237 341 341 341 341 341 341 173
 173 173 190 190 190 190 190 190 190 190 317 317 317 376 376 376 376 376 376 186
 186 186 186 121 121 121 121 121 121 169 173 173 190 190 190 190 190 190 190 190
 317 317 317 376 376 376 376 186 186 186 186 186 121 121 121 121 121 121 169 169
 169 173 190 190 190 190 190 190 190 190 317 317 317 376 376 376 376 186 186 186
 186 186 186 121 121 121 121 121 169 169 169 169 190 190 190 190 190 190 190 190
 229 229 229 229 229 248 248 248 186 186 186 186 186 121 121 121 121 121 169 169
 169 169 190 190 190 190 123 123 123 123 229 229 229 229 286 286 248 248 248 248
 306 255 255 319 319 319 319 24 24 24 24 24 24 92 92 92 123 123 123 123
 229 229 229 229 286 286 248 248 248 248 255 255 255 255 319 319 319 24 24 24
 24 24 24 92 92 92 123 123 123 123 229 229 229 229 286 286 286 248 248 248
 255 255 255 255 319 319 319 24 24 24 24 24 138 138 92 92 123 123 123 123
 229 229 229 354 354 286 286 286 248 69 69 255 255 255 255 319 319 24 24 24
 24 24 138 138 92 123 123 123 123 123 229 229 354 354 354 354 354 286 69 69
 69 255 255 255 255 255 283 283 283 283 283 138 138 138 138 246 123 123 123 123
 243 229 354 354 354 354 354 69 69 69 69 69 255 255 255 251 283 283 283 283
 283 283 200 200 200 206 246 240 240 243 243 243 354 354 354 354 81 69 69 69
 69 69 255 251 251 251 283 283 283 283 283 200 200 200 200 206 206 240 240 243
 243 243 243 243 354 81 81 69 69 69 69 69 51 51 251 251 283 283 283 283
 283 200 200 200 206 206 206 240 240 243 243 243 243 243 81 81 81 69 69 69
 69 51 51 262 262 262 262 350 350 350 350 350 159 159 206 206 206 240 176 176
 243 243 243 243 243 81 81 204 69 69 314 314 314 262 262 262 262 262 350 350
 350 159 159 159 159 206 206 176 176 176 176 176 243 243 201 233 233 233 233 233
 314 314 314 262 262 262 262 262 262 256 256 159 159 159 159 159 3 3 176 176
 176 176 201 201 201 201 233 233 233 314 314 314 314 262 262 262 262 262 294 294
 256 261 159 159 159 3 3 3 3 176 176 176 201 201 201 201 310 310 310 314
 314 314 314 262 262 262 262 262 294 294 294 80 80 80 80 80 3 3 3 176
 264 264 201 201 201 310 310 310 310 310 314 314 314 262 262 262 262 294 294 294
 167 80 80 80 80 80 80 3 3 264 264 264 264 201 28 28 310 310 310 310
 374 374 374 374 374 262 166 166 166 167 167 80 80 80 80 80 80 80 77 264
 264 264 264 28 28 28 28 310 310 310 6 374 374 374 374 374 166 166 166 167
 167 80 80 80 80 80 80 80 181 181 264 264 264 28 28 28 28 28 310 310
 6 6 6 374 374 364 166 166 166 167 167 80 80 80 80 80 80 80 181 181
 181 373 373 28 28 28 28 28 310 310 6 6 6 374 364 153 153 153 153 167
 167 80 80 80 80 80 80 181 181 181 181 373 373 373 28 28 28 28 28 258
 6 6 6 6 153 153 153 153 153 153 260 80 80 80 80 80 78 181 181 181
 181 373 373 373 373 28 98 98 258 258 258 6 6 6 96 153 153 153 153 153
 344 344 80 80 80 78 78 78 78 373 373 373 373 373 373 376 376 98 258 258
 147 147 147 147 153 153 153 153 153 153 344 344 344 344 78 78 78 78 78 78
 373 373 373 376 376 376 376 376 258 258 147 147 147 147 341 153 153 153 153 344
 344 344 344 344 78 78 78 78 78 78 78 373 373 376 376 376 376 376 376 258
 147 147 147 341 341 341 341 341 363 344 344 344 344 344 78 78 78 78 78 78
 78 373 376 376 376 376 376 376 376 376 147 147 147 341 341 341 341 341 363 363
 344 344 344 312 312 78 78 78 78 78 78 317 376 376 376 376 376 376 376 376
 147 147 1 1 1 341 341 341 363 363 344 344 344 312 190 190 190 78 78 78
 317 317 317 376 376 376 376 376 376 376 237 237 121 121 121 121 121 121 363 363
 344 344 190 190 190 190 190 190 190 317 317 317 317 376 376 376 376 376 376 186
 186 186 121 121 121 121 121 121 352 352 352 352 190 190 190 190 190 190 190 317
 317 317 317 317 376 376 376 186 186 186 186 186 121 121 121 121 121 121 352 352
 352 352 190 190 190 190 190 190 18 18 317 317 317 317 376 376 376 186 186 186
 186 186 121 121 121 121 121 121 352 352 352 352 190 190 190 190 190 18 18 18
 229 229 229 229 229 286 248 186 186 186 186 186 184 121 121 121 121 121 24 24
 24 24 190 190 190 190 123 123 123 18 229 229 229 229 286 286 286 248 248 186
 184 184 184 319 319 319 319 24 24 24 24 24 24 92 123 123 123 123 123 123
 229 229 229 229 286 286 286 284 284 284 184 184 184 319 319 319 319 24 24 24
 24 24 24 92 123 123 123 123 123 123 229 229 229 229 286 286 286 286 284 284
 184 184 255 255 319 319 319 24 24 24 24 24 24 138 123 123 123 123 123 123
 229 229 229 354 286 286 286 286 284 69 69 255 255 255 255 319 319 24 24 24
 24 24 24 138 123 123 123 123 123 123 229 229 354 354 354 354 286 286 69 69
 69 255 255 251 251 251 251 283 283 283 283 200 200 200 246 246 246 123 123 123
 160 160 160 354 354 354 354 69 69 69 69 69 251 251 251 251 251 283 283 283
 283 200 200 200 200 246 246 246 123 243 243 243 160 160 354 354 354 69 69 69
 69 69 251 251 251 251 251 283 283 283 283 200 200 200 200 206 206 206 240 243
 243 243 243 160 160 160 81 69 69 69 69 69 251 251 251 251 251 146 283 283
 283 200 200 200 206 206 206 206 267 243 243 243 243 243 160 160 204 204 69 69
 69 51 38 251 262 262 262 256 256 256 256 200 159 159 206 206 206 206 267 243
 243 243 243 243 160 204 204 204 204 204 314 314 314 262 262 262 262 256 256 256
 256 256 159 159 159 206 206 3 176 176 243 243 243 243 191 204 204 204 204 204
 314 314 314 262 262 262 262 256 256 256 256 256 159 159 159 206 3 3 3 176
 176 176 201 201 201 204 204 204 204 204 314 314 314 262 262 262 262 256 256 256
 256 256 118 118 118 118 3 3 3 176 176 60 201 201 201 201 204 204 313 313
 314 314 374 262 262 262 262 256 256 256 256 80 80 118 80 80 3 3 3 60
 60 60 60 201 201 310 310 310 313 313 313 374 374 374 374 374 262 166 167 167
 167 80 80 80 80 80 196 3 3 60 60 60 60 60 28 28 310 310 313 313
 374 374 374 374 374 374 166 166 167 167 167 80 80 80 80 80 80 3 385 385
 60 60 60 28 28 28 28 150 150 150 374 374 374 374 374 374 166 166 166 167
 167 80 80 80 80 80 80 80 385 385 385 60 60 28 28 28 28 150 150 150
 6 6 374 374 374 374 166 166 167 167 167 80 80 80 80 80 80 80 181 181
 181 144 144 28 28 28 28 150 150 150 6 6 6 374 374 153 153 153 167 167
 167 80 80 80 80 80 80 80 181 181 181 144 144 28 28 28 28 150 171 171
 6 6 6 374 374 153 153 153 153 153 260 260 80 80 80 80 80 78 181 181
 181 144 373 373 373 28 279 171 171 171 171 171 6 374 153 153 153 153 153 153
 260 260 260 260 80 78 78 78 78 78 373 373 373 373 376 376 171 171 171 171
 171 171 147 147 153 153 153 153 153 153 260 260 260 260 78 78 78 78 78 78
 78 373 373 376 376 376 376 376 171 171 171 171 147 147 153 153 153 153 153 344
 344 344 344 344 78 78 78 78 78 78 78 373 376 376 376 376 376 376 171 171
 147 147 147 341 341 341 153 153 363 363 344 344 344 344 78 78 78 78 78 78
 78 78 376 376 376 376 376 376 376 171 285 147 1 1 1 1 1 363 363 363
 344 344 344 344 78 78 78 78 78 78 78 317 317 376 376 376 376 376 376 285
 285 285 1 1 1 1 1 1 363 363 344 344 344 344 257 257 78 78 78 78
 317 317 317 376 376 376 376 376 376 186 285 1 1 1 1 1 1 1 363 363
 344 344 190 190 257 257 190 190 190 317 317 317 317 317 376 376 376 376 186 186
 186 11 11 1 1 1 1 1 352 352 352 352 190 190 190 190 190 190 18 18
 317 317 317 62 62 376 376 186 186 186 186 11 11 121 121 121 121 121 352 352
 352 352 190 190 190 190 190 18 18 18 163 163 163 163 62 376 186 186 186 186
 186 11 11 121 121 121 121 121 352 352 352 352 190 190 190 190 18 18 18 18
 18 163 163 229 286 286 186 186 186 186 184 184 184 121 121 121 121 121 24 24
 24 24 190 190 190 123 123 18 18 18 18 229 229 229 286 286 286 284 186 186
 184 184 184 130 130 130 130 24 24 24 24 24 24 70 123 123 123 123 123 123
 229 229 229 301 286 286 286 284 284 284 184 184 184 130 130 130 130 24 24 24
 24 24 24 70 123 123 123 123 123 123 229 229 301 301 286 286 286 284 284 284
 184 184 184 130 130 130 130 24 24 24 24 24 24 70 123 123 123 123 123 123
 301 301 301 301 301 286 286 284 284 284 184 184 184 130 130 130 130 24 24 24
 24 24 43 246 246 123 123 123 123 123 301 301 301 301 71 71 71 71 284 69
 69 184 251 251 251 251 251 146 146 146 24 43 246 246 246 246 246 123 123 123
 160 160 160 160 160 71 71 71 69 69 69 251 251 251 251 251 146 146 146 146
 146 200 200 200 246 246 246 246 123 160 160 160 160 160 160 160 71 71 69 69
 69 251 251 251 251 251 146 146 146 146 146 200 200 200 200 246 246 246 246 243
 243 243 160 160 160 160 160 204 69 69 291 251 251 251 251 251 146 146 146 146
 146 200 200 200 206 206 206 206 267 267 243 243 243 160 160 160 204 204 204 291
 38 38 38 251 251 182 182 256 256 256 256 256 159 159 206 206 206 267 267 267
 243 243 243 191 191 204 204 204 204 204 38 38 38 182 182 182 182 256 256 256
 256 256 159 159 159 206 111 267 267 267 267 243 191 191 191 204 204 204 204 204
 38 38 38 182 182 182 182 256 256 256 256 256 118 118 118 111 111 111 111 267
 267 267 191 191 191 204 204 204 204 204 313 38 182 182 182 182 182 256 256 256
 256 256 118 118 118 111 111 111 111 111 60 60 191 201 191 36 204 204 313 313
 313 374 374 374 182 182 182 256 256 256 256 256 118 118 118 196 111 111 111 60
 60 60 60 60 36 36 313 313 313 313 313 374 374 374 374 374 182 167 167 167
 167 80 80 80 80 196 196 196 111 60 60 60 60 60 36 36 150 150 313 313
 374 374 374 374 374 374 166 166 167 167 167 167 80 80 80 196 196 196 385 385
 60 60 60 60 28 150 150 150 150 150 374 374 374 374 374 374 166 166 167 167
 167 167 80 80 80 80 196 385 385 385 385 60 60 60 28 150 150 150 150 150
 6 374 374 374 374 374 166 166 167 167 167 167 80 80 80 80 80 385 385 385
 144 144 144 144 28 150 150 150 150 150 6 6 374 374 374 374 153 153 167 167
 167 260 80 80 80 80 80 385 385 385 144 144 144 144 279 279 279 150 171 171
 171 6 6 374 374 153 153 153 153 260 260 260 260 80 80 80 78 78 385 385
 144 144 144 144 279 279 279 171 171 171 171 171 171 374 374 153 153 153 153 260
 260 260 260 260 80 78 78 78 78 78 144 144 144 144 279 279 279 171 171 171
 171 171 171 374 153 153 153 153 153 153 260 260 260 260 78 78 78 78 78 78
 78 144 207 207 376 376 376 171 171 171 171 171 171 171 153 153 153 153 153 344
 344 344 344 344 78 78 78 78 78 78 78 207 207 207 376 376 376 171 171 171
 285 285 1 1 1 1 1 153 363 363 344 344 344 344 78 78 78 78 78 78
 78 207 207 207 376 376 376 376 285 285 285 285 1 1 1 1 1 1 363 363
 344 344 344 344 12 78 78 78 78 78 78 317 207 376 376 376 376 376 285 285
 285 285 1 1 1 1 1 1 363 363 344 344 344 344 257 12 78 78 78 78
 317 317 317 62 376 376 376 376 285 285 285 1 1 1 1 1 1 1 352 352
 352 344 344 190 257 257 190 190 78 317 317 317 317 62 62 376 376 376 285 285
 11 11 11 1 1 1 1 1 352 352 352 352 352 190 190 190 12 18 18 18
 163 163 163 62 62 62 376 186 186 186 11 11 11 1 1 121 121 352 352 352
 352 352 352 274 274 190 190 18 18 18 163 163 163 163 62 62 186 186 186 186
 11 11 11 121 121 121 121 352 352 352 352 352 352 274 274 190 18 18 18 18
 18 163 163 163 301 286 286 270 270 186 184 184 184 121 130 130 130 352 352 352
 352 352 70 70 274 18 18 18 18 18 18 301 301 301 301 286 286 284 270 186
 184 184 184 184 130 130 130 130 24 24 24 24 70 70 70 123 123 123 123 18
 18 301 301 301 301 286 284 284 284 184 184 184 184 184 130 130 130 130 24 24
 24 43 70 70 70 123 123 123 123 123 301 301 301 301 301 286 284 284 284 284
 184 184 184 184 130 130 130 130 24 24 43 43 70 70 70 23 23 123 123 123
 301 301 301 301 301 71 284 284 284 284 184 184 184 184 130 130 130 146 146 146
 43 43 43 70 246 23 23 23 123 123 301 301 301 301 71 71 71 71 284 284
 291 184 251 251 251 251 146 146 146 146 146 43 43 246 246 246 246 23 76 76
 160 160 160 160 160 71 71 71 291 291 291 291 251 251 251 251 146 146 146 146
 146 334 334 334 246 246 246 246 76 76 160 160 160 160 160 160 71 291 291 291
 291 291 251 251 251 251 146 146 146 146 146 334 334 334 246 246 246 246 76 76
 160 160 160 160 160 160 160 291 291 291 291 291 38 251 251 251 146 146 146 146
 146 334 334 334 334 206 246 246 267 267 243 160 160 160 160 160 204 204 204 291
 38 38 38 38 251 182 146 146 256 256 256 334 334 334 334 206 206 267 267 267
 267 243 191 191 191 204 204 204 204 204 38 38 38 182 182 182 182 256 256 256
 256 256 334 334 334 206 111 267 267 267 267 267 191 191 191 204 204 204 204 204
 38 38 38 182 182 182 182 256 256 256 256 256 118 118 118 111 111 111 267 267
 267 267 191 191 191 204 204 204 204 204 38 38 38 182 182 182 182 256 256 256
 256 256 118 118 118 111 111 111 111 267 267 60 60 36 36 36 204 204 313 313
 38 374 374 374 182 182 182 256 256 256 256 256 118 118 118 196 111 111 111 60
 60 60 60 36 36 36 36 313 313 313 374 374 374 374 374 182 182 167 167 167
 167 167 80 80 196 196 196 196 111 60 60 60 60 60 36 36 36 150 313 313
 374 374 374 374 374 374 167 167 167 167 167 167 80 80 196 196 196 385 385 385
 60 60 60 60 36 36 150 150 150 150 374 374 374 374 374 374 167 167 167 167
 167 167 80 80 80 196 196 385 385 385 385 144 60 60 36 150 150 150 150 150
 374 374 374 374 374 374 167 167 167 167 167 167 80 80 80 80 385 385 385 385
 144 144 144 144 279 150 150 150 150 150 171 374 374 374 374 374 153 167 167 167
 167 260 80 80 80 80 385 385 385 385 144 144 144 144 279 279 279 279 171 171
 171 171 374 374 374 153 153 153 153 260 260 260 260 260 80 80 78 385 385 385
 144 144 144 144 279 279 279 279 171 171 171 171 171 374 374 153 153 153 153 260
 260 260 260 260 260 78 78 78 78 385 144 144 144 144 279 279 279 171 171 171
 171 171 171 374 153 153 153 153 153 260 260 260 260 260 78 78 78 78 78 78
 144 207 207 207 207 308 308 171 171 171 171 171 171 298 298 153 153 153 153 260
 260 260 260 260 78 78 78 78 78 78 78 207 207 207 207 308 308 308 171 171
 285 285 285 1 1 1 1 1 363 344 344 344 344 344 12 78 78 78 78 78
 78 207 207 207 207 308 308 308 285 285 285 285 1 1 1 1 1 1 1 344
 344 344 344 12 12 12 78 78 78 78 78 207 207 207 207 308 308 285 285 285
 285 285 1 1 1 1 1 1 1 344 344 344 344 12 12 12 12 78 78 78
 2 2 62 62 62 376 376 285 285 285 285 1 1 1 1 1 1 1 352 352
 352 344 344 12 12 12 12 12 78 78 2 2 62 62 62 376 376 285 285 285
 11 11 11 1 1 1 1 1 352 352 352 352 352 274 274 12 12 12 18 18
 2 2 2 62 62 62 289 289 186 186 11 11 11 1 1 1 1 352 352 352
 352 352 352 274 274 274 274 18 18 18 163 163 163 163 62 289 289 270 270 270
 11 11 11 121 121 121 121 352 352 352 352 352 352 274 274 274 18 18 18 18
 18 163 163 163 301 289 270 270 270 270 184 184 184 184 130 130 130 352 352 352
 352 352 70 70 274 274 18 18 18 18 18 301 301 301 301 301 270 270 270 270
 184 184 184 184 130 130 130 130 24 24 24 70 70 70 70 70 123 123 18 18
 18 301 301 301 301 301 284 284 270 270 184 184 184 184 130 130 130 130 24 24
 43 70 70 70 70 70 23 123 123 123 301 301 301 301 301 301 284 284 284 284
 184 184 184 184 130 130 130 130 24 24 43 43 70 70 70 23 23 23 123 76
 301 301 301 301 301 71 284 284 284 284 184 184 184 184 130 130 130 146 146 146
 43 43 43 70 70 23 23 23 76 76 76 301 301 301 71 71 71 284 284 284
 291 291 184 251 251 146 146 146 146 146 43 43 43 246 246 246 23 23 76 76
 76 160 160 160 160 71 71 284 291 291 291 291 251 251 251 146 146 146 146 146
 146 334 334 334 246 246 246 76 76 76 76 160 160 160 160 160 87 291 291 291
 291 291 291 251 251 146 146 146 146 146 146 334 334 334 334 246 246 246 76 76
 160 160 160 160 160 87 87 87 291 291 291 291 291 251 251 146 146 146 146 146
 146 334 334 334 334 334 246 246 267 267 160 160 160 160 87 87 87 204 291 291
 38 38 38 38 251 146 146 146 146 146 212 334 334 334 334 334 42 42 267 267
 267 101 101 101 87 87 204 204 204 204 38 38 38 38 182 182 182 256 256 256
 212 212 334 334 334 334 42 42 267 267 267 267 191 191 191 204 204 204 204 38
 38 38 38 38 182 182 182 256 256 256 256 212 343 343 343 343 111 111 267 267
 267 267 191 191 191 36 204 204 204 38 38 38 38 38 182 182 182 256 256 256
 256 212 343 343 343 343 111 111 111 111 267 267 191 36 36 36 36 36 313 38
 38 38 38 374 182 182 182 256 256 256 256 212 343 343 343 196 111 111 111 60
 60 60 60 36 36 36 36 36 313 313 374 374 374 374 374 374 182 167 167 167
 167 167 343 343 196 196 196 111 385 60 60 60 60 36 36 36 36 36 150 150
 374 374 374 374 374 374 167 167 167 167 167 167 167 80 196 196 196 385 385 385
 60 60 60 36 36 36 36 150 150 150 374 374 374 374 374 374 167 167 167 167
 167 167 167 80 196 196 385 385 385 385 385 385 60 36 36 36 150 150 150 150
 374 374 374 374 374 374 167 167 167 167 167 167 167 80 80 80 385 385 385 385
 385 144 144 36 279 279 279 150 150 150 171 374 374 374 374 374 167 167 167 167
 167 167 260 80 80 19 385 385 385 385 144 144 144 144 279 279 279 279 171 171
 171 275 275 374 374 374 153 153 167 260 260 260 260 260 19 19 19 385 385 385
 144 144 144 144 279 279 279 279 171 171 171 171 275 275 374 153 153 153 153 260
 260 260 260 260 19 19 19 78 385 385 144 144 144 207 279 279 279 171 171 171
 171 171 275 275 298 153 153 153 153 260 260 260 260 260 19 19 19 78 78 78
 144 207 207 207 207 308 308 171 171 171 171 275 275 298 298 298 298 298 153 260
 260 260 260 12 12 78 78 78 78 78 78 207 207 207 207 308 308 308 171 171
 285 285 285 298 298 298 298 298 298 344 344 344 344 12 12 12 78 78 78 78
 78 207 207 207 207 308 308 308 285 285 285 285 1 1 1 1 1 1 1 344
 344 344 344 12 12 12 12 78 78 78 78 207 207 207 207 308 308 308 285 285
 285 285 1 1 1 1 1 1 1 344 344 344 344 12 12 12 12 12 78 78
 2 2 2 62 62 308 308 285 285 285 285 1 1 1 1 1 1 1 352 352
 352 344 12 12 12 12 12 12 78 2 2 2 2 62 62 62 308 285 285 285
 11 11 11 1 1 1 1 1 352 352 352 352 274 274 274 12 12 12 18 2
 2 2 2 2 289 289 289 289 289 270 11 11 11 1 1 1 1 352 352 352
 352 352 352 274 274 274 274 18 18 18 2 2 2 2 289 289 289 289 270 270
 11 11 11 1 1 1 1 352 352 352 352 352 274 274 274 274 274 18 18 18
 18 387 387 387 289 289 289 270 270 270 184 184 184 184 130 288 288 352 7 7
 7 70 70 70 274 274 274 18 18 18 18 387 387 301 301 289 270 270 270 270
 184 184 184 184 130 288 288 7 7 7 7 70 70 70 70 70 97 97 18 18
 18 301 301 301 301 301 270 270 270 270 184 184 184 184 130 288 288 7 7 7
 7 70 70 70 70 70 97 97 97 97 301 301 301 301 301 301 284 284 284 284
 184 184 184 184 130 130 130 7 7 7 43 43 70 70 70 70 23 23 76 76
 76 301 301 301 301 301 284 284 284 284 184 184 184 27 105 105 105 146 146 146
 43 43 70 70 70 70 23 23 76 76 76 76 301 301 301 71 71 284 284 291
 291 291 27 27 105 105 146 146 146 146 146 43 334 334 246 246 23 76 76 76
 76 76 160 160 160 71 71 291 291 291 291 291 291 27 146 146 146 146 146 146
 146 334 334 334 334 246 246 76 76 76 76 76 160 160 160 87 87 291 291 291
 291 291 291 27 146 146 146 146 146 146 146 334 334 334 334 334 246 76 76 76
 76 160 160 101 87 87 87 87 291 291 291 291 291 291 146 146 146 146 146 146
 146 334 334 334 334 334 334 76 76 76 76 101 101 101 87 87 87 87 291 291
 38 38 38 38 223 146 146 146 146 146 212 212 334 334 334 334 42 42 42 267
 267 101 101 101 87 87 87 204 204 291 38 38 38 38 38 182 146 146 212 212
 212 212 212 334 334 334 42 42 42 267 267 101 101 101 101 87 204 204 204 38
 38 38 38 38 182 182 182 256 212 212 212 212 343 343 343 343 42 42 42 267
 267 267 101 101 36 36 36 204 204 38 38 38 38 38 182 182 182 64 212 212
 212 212 343 343 343 343 111 111 111 111 267 60 36 36 36 36 36 74 74 38
 38 38 38 38 182 182 64 64 212 212 212 212 343 343 343 343 370 370 370 370
 60 60 36 36 36 36 36 36 36 38 38 374 374 374 374 64 64 64 167 167
 167 167 343 343 196 196 370 370 370 370 60 60 60 36 36 36 36 36 36 36
 374 374 374 374 374 64 64 167 167 167 167 167 187 187 196 196 370 370 385 385
 385 60 60 36 36 36 36 36 36 112 374 374 374 374 374 374 167 167 167 167
 167 167 187 187 187 196 385 385 385 385 385 345 60 36 36 36 36 150 150 112
 275 374 374 374 374 374 167 167 167 167 167 167 187 187 187 19 385 385 385 385
 385 385 144 36 279 279 279 279 150 150 275 275 275 374 374 374 167 167 167 167
 167 167 187 187 19 19 385 385 385 385 385 179 185 185 279 279 279 279 279 275
 275 275 275 275 374 91 153 211 211 211 260 260 260 19 19 19 19 385 385 385
 179 179 185 185 279 279 279 279 171 171 275 275 275 275 275 91 153 211 211 211
 260 260 260 19 19 19 19 19 19 179 179 185 185 185 185 279 279 171 171 171
 275 275 275 275 275 298 298 211 211 211 260 260 260 19 19 19 19 19 19 179
 67 67 185 185 185 308 308 171 171 171 275 275 275 275 298 298 298 298 211 211
 260 260 260 19 19 19 19 19 78 67 67 67 207 207 207 308 308 308 171 171
 285 275 275 298 298 298 298 298 106 106 344 344 12 12 12 307 307 78 78 78
 67 207 207 207 207 308 308 308 285 285 285 285 1 1 298 298 298 298 106 106
 106 344 12 12 12 307 307 78 78 2 2 2 207 207 207 308 308 308 285 285
 285 285 1 1 1 1 1 1 106 106 106 344 12 12 12 12 12 12 78 2
 2 2 2 2 207 308 308 308 285 285 46 1 1 1 1 1 1 1 352 106
 352 344 12 12 12 12 12 12 12 2 2 2 2 2 289 289 289 289 46 46
 46 46 79 79 79 79 1 1 352 129 129 129 129 274 274 12 12 152 152 152
 2 2 2 289 289 289 289 289 46 46 46 241 79 79 79 79 1 352 352 129
 129 129 129 274 274 274 274 152 152 152 2 2 2 289 289 289 289 289 270 270
 241 241 241 241 288 288 288 352 352 129 129 129 129 274 274 274 274 152 152 387
 387 387 387 289 289 289 289 270 270 270 241 241 241 241 288 288 288 288 7 7
 7 7 70 70 274 274 97 97 97 387 387 387 387 387 289 289 289 270 270 241
 241 241 241 241 288 288 288 288 7 7 7 7 70 70 70 70 97 97 97 97
 387 387 387 301 301 209 209 270 270 241 241 241 241 27 288 288 288 7 7 7
 7 70 70 70 70 70 97 97 97 97 58 58 58 301 301 209 209 209 284 241
 184 184 27 27 105 105 288 7 7 7 7 70 70 70 323 70 97 97 97 76
 76 58 301 301 301 209 209 209 284 241 291 27 27 27 105 105 105 105 7 7
 7 70 70 70 70 70 97 76 76 76 76 76 301 301 301 71 209 54 54 291
 291 291 27 27 105 105 105 146 146 146 146 61 61 61 61 379 379 379 76 76
 76 76 135 160 160 71 54 54 54 291 291 291 27 27 105 105 146 146 146 146
 146 334 61 61 61 379 379 379 76 76 76 135 135 160 160 87 87 54 291 291
 291 291 291 27 223 146 146 146 146 146 146 334 334 334 334 334 379 379 76 76
 76 101 101 101 101 87 87 87 291 291 291 100 100 223 223 223 146 146 146 146
 212 334 334 334 334 334 334 379 76 76 76 101 101 101 101 87 87 87 100 291
 100 38 38 223 223 223 223 146 146 212 212 212 334 334 334 334 42 42 42 267
 101 101 101 101 101 87 87 87 100 100 38 38 38 38 223 223 223 223 212 212
 212 212 212 334 334 114 42 42 42 267 267 101 101 101 101 87 74 74 74 38
 38 38 38 68 68 223 223 223 212 212 212 212 212 343 343 114 42 42 42 267
 40 40 40 101 36 36 74 74 74 38 38 38 38 68 68 68 64 64 212 212
 212 212 343 343 343 343 370 370 370 370 40 40 40 36 36 36 74 74 74 38