# vtk DataFile Version 2.0
Data set from IO Version 6.4.197.9a0dee2
ASCII

DATASET RECTILINEAR_GRID
DIMENSIONS 31 31 31
X_COORDINATES 31 float
-4.116666 4.116666 12.349998 20.583330 28.816664 37.049999 45.283329 53.516663 61.749996 69.983322 78.216660 86.449989 94.683319 102.916656 111.149986 119.383324 127.616653 135.849991 144.083313 152.316650 160.549988 
168.783310 177.016647 185.249985 193.483307 201.716644 209.949982 218.183319 226.416641 234.649979 242.883316 
Y_COORDINATES 31 float
-4.116666 4.116666 12.349998 20.583330 28.816664 37.049999 45.283329 53.516663 61.749996 69.983322 78.216660 86.449989 94.683319 102.916656 111.149986 119.383324 127.616653 135.849991 144.083313 152.316650 160.549988 
168.783310 177.016647 185.249985 193.483307 201.716644 209.949982 218.183319 226.416641 234.649979 242.883316 
Z_COORDINATES 31 float
-4.116666 4.116666 12.349998 20.583330 28.816664 37.049999 45.283329 53.516663 61.749996 69.983322 78.216660 86.449989 94.683319 102.916656 111.149986 119.383324 127.616653 135.849991 144.083313 152.316650 160.549988 
168.783310 177.016647 185.249985 193.483307 201.716644 209.949982 218.183319 226.416641 234.649979 242.883316 
CELL_DATA 27000
SCALARS FeatureIds int 1
LOOKUP_TABLE default
 235 235 235 235 235 235 86 86 1 1 1 1 1 1 146 146 146 146 146 146
 146 81 81 81 81 223 223 223 223 223 235 235 235 235 235 86 86 86 1 1
 1 1 1 1 1 146 146 146 146 146 146 81 81 160 160 160 160 223 223 223
 225 235 235 86 86 86 86 86 86 1 1 1 1 1 1 146 146 146 146 146
 146 160 160 160 160 160 160 160 160 225 225 225 86 86 86 86 86 392 392 1
 1 1 1 1 64 64 64 64 272 272 272 272 160 160 160 160 160 160 160 225
 225 225 225 86 86 86 392 392 392 392 1 1 1 1 64 64 64 64 272 272
 272 272 272 160 160 160 160 150 225 225 225 225 284 284 86 392 392 392 392 392
 1 231 1 1 64 64 64 64 272 272 272 272 272 306 160 150 150 150 225 225
 225 225 284 284 284 284 392 392 392 392 231 231 231 231 64 64 64 64 272 272
 272 272 272 272 150 150 150 150 225 225 368 368 284 284 284 284 392 392 392 392
 231 231 231 26 26 64 64 105 105 105 272 272 272 272 150 150 150 150 150 225
 368 368 9 284 284 284 46 46 46 46 46 26 26 26 26 26 26 105 105 105
 272 272 272 272 150 150 150 150 368 368 368 9 9 284 284 46 46 46 46 46
 46 26 26 26 26 26 338 338 338 338 272 272 272 272 150 150 150 150 368 368
 258 9 9 9 358 358 358 46 46 67 67 26 26 26 26 26 338 338 338 338
 272 272 320 320 320 343 258 258 258 258 258 258 9 358 358 358 358 67 67 67
 67 67 26 26 26 26 357 338 338 338 272 320 320 320 320 320 258 258 258 258
 258 258 258 358 358 358 358 67 67 67 67 67 26 26 26 357 357 357 357 357
 366 320 320 320 320 343 258 258 258 258 258 258 258 74 74 74 74 74 67 67
 67 67 335 170 170 357 357 357 357 366 366 366 320 320 28 28 258 258 258 258
 258 258 74 74 74 74 74 74 74 67 335 335 335 335 170 170 357 366 366 366
 366 366 28 28 28 28 192 192 258 258 261 261 74 74 74 74 74 74 74 335
 335 335 335 335 335 224 224 224 366 366 141 141 141 28 28 192 192 192 192 192
 192 261 74 74 74 74 74 74 74 335 335 335 335 335 224 224 224 224 224 141
 141 141 141 141 192 192 192 192 192 192 192 45 45 45 45 74 74 74 218 218
 218 218 218 218 224 224 224 224 224 141 141 141 141 141 192 192 192 192 192 192
 192 45 45 45 45 45 74 74 218 218 218 218 218 218 224 224 224 329 329 141
 141 141 141 141 192 192 192 192 192 192 192 45 45 45 45 45 319 319 218 218
 218 218 218 218 224 224 224 329 329 329 141 141 141 192 192 192 192 192 192 192
 192 45 45 45 45 319 319 319 218 218 218 218 218 218 218 224 224 329 329 329
 14 14 14 14 192 192 192 192 192 192 269 269 269 269 319 319 319 319 218 218
 218 218 218 259 259 259 224 329 329 14 14 14 14 14 14 199 199 199 199 199
 269 269 269 269 269 2 2 2 2 218 259 259 259 259 259 259 373 373 373 14
 14 14 14 14 14 199 199 199 199 199 269 269 269 269 269 2 2 2 2 259
 259 259 259 259 259 259 373 373 373 373 14 14 14 14 14 199 199 199 199 199
 269 269 269 269 269 2 2 2 2 129 129 129 259 259 259 259 373 373 373 373
 373 121 121 121 121 121 199 199 199 199 354 354 269 269 269 2 2 2 18 381
 381 381 381 259 259 373 373 373 373 373 147 147 121 121 121 121 203 203 203 203
 354 354 354 269 269 2 57 57 18 381 381 381 381 125 125 373 373 373 373 373
 147 147 147 121 121 121 203 203 203 354 354 354 235 235 235 235 57 57 57 18
 381 125 125 125 125 161 161 161 146 147 147 147 147 121 121 121 223 354 354 354
 354 354 235 235 235 235 57 57 57 18 18 125 125 125 125 146 146 146 146 146
 147 147 147 81 121 223 223 223 354 354 354 235 235 235 235 235 57 57 57 18
 18 125 125 125 125 146 146 146 146 146 147 147 81 81 81 223 223 223 223 354
 207 235 235 235 235 235 86 301 301 301 301 1 1 211 211 211 146 146 146 146
 146 81 81 81 81 223 223 223 223 354 207 235 235 235 378 86 86 301 301 301
 301 1 1 1 211 211 211 146 146 146 146 81 81 160 160 160 160 223 223 354
 363 363 378 86 86 86 86 86 190 190 190 1 1 1 211 211 211 211 146 146
 272 160 160 160 160 160 160 160 363 363 363 363 86 86 86 86 86 392 190 190
 1 1 1 1 1 64 211 211 146 272 272 272 306 306 160 160 160 160 363 363
 363 363 363 86 86 86 392 392 392 392 1 1 1 1 64 64 64 64 272 272
 272 272 306 306 306 160 160 150 363 363 225 225 284 284 284 284 392 392 392 392
 231 231 231 1 64 64 64 64 272 272 272 272 306 306 306 19 150 150 225 225
 225 225 284 284 284 284 392 392 392 392 231 231 231 231 64 64 64 300 272 272
 272 272 272 306 306 150 150 150 150 225 368 368 284 284 284 284 46 46 46 46
 231 231 231 26 26 64 300 300 300 272 272 272 272 272 150 150 150 150 150 368
 368 368 284 284 284 284 46 46 46 46 46 26 26 26 26 26 26 300 105 272
 272 116 116 272 150 150 150 150 368 368 368 368 9 284 284 284 46 46 46 46
 46 26 26 26 26 26 338 338 338 338 116 116 116 116 343 343 343 368 368 368
 258 258 9 9 358 358 46 46 46 46 46 26 26 26 26 26 338 338 338 338
 116 116 116 116 343 343 343 258 258 258 258 258 258 358 358 358 358 46 46 67
 67 67 26 26 26 26 338 338 338 338 116 116 116 320 343 343 343 258 258 258
 258 258 258 358 358 358 358 67 67 67 67 170 170 170 170 170 357 338 338 338
 366 366 320 320 343 343 343 258 258 258 258 258 258 74 74 74 74 297 67 67
 67 170 170 170 170 170 357 366 366 366 366 366 28 28 28 28 343 258 258 258
 258 261 261 74 74 74 74 74 227 227 335 170 170 170 170 170 304 366 366 366
 366 366 28 28 28 28 28 258 258 258 261 261 261 74 74 74 74 74 227 227
 227 335 170 170 170 304 304 366 366 366 366 366 28 28 28 28 192 192 192 192
 261 261 45 74 74 74 74 74 227 227 227 335 335 170 304 304 224 224 22 22
 22 141 141 28 192 192 192 192 192 192 192 45 45 45 45 74 74 74 227 227
 218 218 218 218 224 224 224 224 22 22 141 141 141 192 192 192 192 192 192 192
 192 45 45 45 45 45 45 45 218 218 218 218 218 218 224 224 329 329 329 22
 141 141 141 192 192 192 192 192 192 192 192 45 45 45 45 45 319 319 218 218
 218 218 218 167 167 224 329 329 329 329 141 141 141 192 192 192 192 192 192 192
 192 45 45 45 45 319 319 319 319 218 218 218 167 167 167 5 329 329 329 329
 14 14 14 14 192 192 192 192 192 192 192 45 45 45 319 319 319 319 319 218
 218 218 259 259 259 259 329 329 329 329 14 14 14 14 14 199 199 199 199 199
 199 269 269 269 2 2 319 319 319 319 259 259 259 259 259 259 373 373 84 14
 14 14 14 14 14 199 199 199 199 199 199 269 269 269 2 2 2 2 2 381
 381 259 259 259 259 259 373 373 373 373 14 14 14 14 14 199 199 199 199 199
 199 69 69 69 2 2 2 2 2 129 129 129 259 259 259 259 373 373 373 373
 14 14 14 14 14 199 199 199 199 199 354 354 69 69 69 2 2 57 18 381
 381 381 381 259 259 259 373 373 373 373 147 147 147 121 121 121 199 199 354 354
 354 354 354 69 69 2 57 57 18 18 381 381 381 259 259 373 373 373 373 147
 147 147 147 147 121 121 354 354 354 354 354 354 354 235 235 57 57 57 57 18
 18 381 381 125 125 161 280 280 280 147 147 147 147 147 121 121 354 354 354 354
 354 354 235 235 235 235 57 57 57 18 18 18 125 125 125 146 280 280 280 147
 147 147 147 81 81 223 223 354 354 354 354 354 235 235 235 235 57 57 57 18
 18 18 125 125 146 146 146 146 146 146 147 147 81 81 81 223 223 223 354 354
 207 207 229 235 378 229 229 301 301 301 301 301 134 134 211 211 211 211 146 146
 146 81 81 81 81 90 223 223 207 207 207 207 378 378 378 378 378 301 301 301
 301 1 134 134 211 211 211 211 146 146 146 81 81 81 160 160 160 223 207 207
 363 363 378 378 378 378 31 31 190 190 190 190 134 134 211 211 211 211 211 211
 272 160 160 160 160 160 160 363 363 363 363 363 378 378 378 86 31 31 190 190
 190 1 1 1 211 211 211 211 211 211 272 272 306 306 19 160 160 363 363 363
 363 363 363 378 378 31 31 31 31 190 190 1 1 1 211 64 300 300 300 300
 272 272 306 306 19 19 19 363 363 363 363 363 284 284 284 284 31 31 31 190
 231 231 231 231 64 300 300 300 300 300 272 272 306 306 19 19 19 19 363 363
 225 284 284 284 284 284 284 392 392 231 231 231 231 231 300 300 300 300 300 300
 272 272 306 306 19 19 19 19 150 225 368 284 284 284 284 284 284 46 46 46
 231 231 231 26 26 300 300 300 300 300 116 116 116 377 19 19 19 19 150 368
 368 368 284 284 284 284 46 46 46 46 46 26 26 26 26 26 300 300 300 300
 116 116 116 377 377 19 19 343 368 368 258 258 291 291 291 46 46 46 46 46
 46 26 26 26 26 26 338 338 338 338 116 116 116 116 343 343 343 343 258 258
 258 258 258 291 291 46 46 46 46 46 46 26 26 26 26 26 338 338 338 338
 116 116 116 116 343 343 343 343 258 258 258 258 258 291 291 358 46 46 46 46
 67 170 170 170 170 170 338 338 338 338 116 116 116 116 343 343 343 343 258 258
 258 258 258 292 292 297 297 297 297 297 170 170 170 170 170 170 170 338 338 338
 116 116 116 28 343 343 343 343 258 258 258 292 292 292 74 297 297 297 297 227
 227 170 170 170 170 170 170 366 366 366 366 366 28 28 28 28 21 21 21 258
 261 261 261 261 74 297 297 297 227 227 227 170 170 170 170 170 304 366 366 366
 366 366 28 28 28 28 28 21 21 258 261 261 261 83 83 74 297 297 227 227
 227 170 170 170 170 304 304 304 366 366 366 366 28 28 28 28 28 192 192 261
 261 261 261 83 83 83 74 227 227 227 227 227 170 170 304 304 304 304 22 22
 22 22 28 28 28 166 192 192 192 192 261 83 83 83 83 83 74 227 227 227
 227 167 167 167 167 304 304 22 22 22 22 22 28 28 166 166 192 192 192 192
 192 45 45 45 45 45 45 62 62 227 218 167 167 167 167 5 5 329 22 22
 22 22 141 192 192 192 192 192 192 192 192 45 45 45 45 319 319 319 62 62
 167 167 167 167 5 5 5 329 22 22 22 22 192 192 192 192 192 192 192 192
 45 45 45 45 45 319 319 319 319 62 167 167 167 167 167 5 5 329 329 22
 22 14 14 14 192 192 192 192 192 192 45 45 45 45 319 319 319 319 319 62
 167 167 167 167 167 5 5 329 84 84 14 14 14 14 14 199 199 192 192 192
 69 69 69 69 319 319 319 319 319 319 259 259 259 259 259 259 259 84 84 84
 14 14 14 14 14 199 199 199 199 199 69 69 69 69 69 2 2 2 2 381
 381 259 259 259 259 259 259 84 84 84 14 14 14 14 14 199 199 199 199 199
 69 69 69 69 69 2 2 2 18 381 381 381 259 259 259 259 373 84 84 84
 14 14 14 14 14 199 199 199 199 199 354 69 69 69 69 2 2 18 18 18
 381 381 381 259 259 259 373 373 373 147 147 147 147 14 121 121 199 199 354 354
 354 354 69 69 69 57 57 18 18 18 18 381 381 259 259 373 280 280 280 147
 147 147 147 147 121 121 354 354 354 354 354 354 354 69 229 57 57 57 18 18
 18 18 381 148 148 148 280 280 280 147 147 147 147 147 147 121 354 354 354 354
 354 354 354 229 229 229 57 57 18 18 18 18 18 148 148 148 280 280 280 147
 147 147 147 147 147 223 354 354 354 354 207 354 229 229 229 229 57 57 18 18
 18 18 18 211 211 211 211 280 280 146 147 147 81 81 81 81 223 207 207 207
 207 207 229 229 229 229 229 229 301 301 301 134 134 134 211 211 211 211 211 146
 146 81 81 81 90 90 90 90 207 207 266 266 378 378 378 378 378 31 301 190
 190 3 134 134 211 211 211 211 211 211 211 81 81 162 90 90 90 90 266 266
 363 363 378 378 378 378 31 31 31 190 190 3 4 4 211 211 211 211 211 211
 211 160 160 19 19 90 90 363 363 363 363 363 378 378 378 80 31 31 31 190
 190 3 4 4 211 211 211 211 211 211 272 272 306 19 19 19 19 363 363 363
 363 363 378 40 80 80 31 31 31 31 3 3 3 4 211 300 300 300 300 300
 300 272 306 19 19 19 19 363 363 363 363 363 40 40 80 80 80 31 31 31
 231 3 231 231 300 300 300 300 300 300 300 377 377 19 19 19 19 19 363 363
 363 363 284 40 80 80 80 80 49 49 49 49 231 231 300 300 300 300 300 300
 300 377 377 377 19 19 19 19 363 363 368 291 291 291 291 291 80 49 49 49
 49 49 231 26 26 300 300 300 300 300 116 116 377 377 377 19 19 19 77 77
 368 291 291 291 291 291 291 46 46 49 49 49 26 26 26 300 300 300 300 116
 116 116 116 377 377 377 77 77 77 77 258 291 291 291 291 291 46 46 46 46
 46 26 26 26 26 26 300 300 300 116 116 116 116 116 377 77 77 77 77 258
 258 291 291 291 291 291 46 46 46 46 46 170 170 170 170 170 338 338 338 116
 116 116 116 116 343 343 343 343 77 258 258 292 291 291 291 309 297 297 297 297
 170 170 170 170 170 170 170 338 338 338 116 116 116 116 343 343 343 343 258 258
 292 292 292 292 292 297 297 297 297 297 170 170 170 170 170 170 170 338 338 366
 116 116 116 28 28 343 343 21 21 258 292 292 292 292 297 297 297 297 297 297
 170 170 170 170 170 170 170 366 366 366 366 366 28 28 28 28 21 21 21 292
 261 261 261 292 83 297 297 297 227 227 227 170 170 170 170 170 304 304 366 366
 366 366 28 28 28 28 28 21 21 292 261 261 261 83 83 83 297 297 227 227
 227 170 170 170 170 304 304 304 366 366 366 366 28 28 28 28 28 21 21 261
 261 261 83 83 83 83 297 297 227 227 227 227 170 170 304 304 304 304 22 22
 22 22 28 28 28 166 166 192 192 261 83 83 83 83 83 83 83 227 227 227
 227 227 167 167 304 304 304 22 22 22 22 22 22 28 166 166 166 192 192 192
 83 83 83 83 83 83 62 62 62 62 167 167 167 167 5 5 5 22 22 22
 22 22 22 166 166 166 192 192 192 192 83 83 83 83 83 319 62 62 62 62
 167 167 167 167 5 5 5 22 22 22 22 22 282 282 192 192 192 192 192 192
 45 45 45 45 319 319 319 62 62 62 167 167 167 167 167 5 5 329 22 22
 22 282 282 282 282 192 192 192 192 192 69 69 45 69 319 319 319 319 62 62
 167 167 167 167 167 5 5 84 84 84 84 14 282 282 282 282 199 192 192 192
 69 69 69 69 69 319 319 319 62 307 167 167 167 167 167 144 84 84 84 84
 84 14 14 14 14 199 199 199 199 199 69 69 69 69 69 69 2 319 307 307
 307 259 259 259 259 259 144 84 84 84 84 14 14 14 14 199 199 199 199 199
 69 69 69 69 69 69 2 2 18 18 381 381 259 259 259 144 144 84 84 84
 84 14 14 14 14 199 199 199 199 199 354 69 69 69 69 69 69 18 18 18
 18 381 381 259 259 144 144 132 173 173 173 147 147 14 121 175 175 175 199 354
 354 354 69 69 92 92 92 18 18 18 18 18 381 259 259 144 148 280 173 173
 173 147 147 147 121 175 175 175 354 354 354 354 229 92 92 92 92 18 18 18
 18 18 18 148 148 148 148 280 173 173 173 147 147 340 340 175 207 207 207 354
 207 229 229 229 229 92 92 18 18 18 18 18 18 148 148 148 148 280 173 173
 173 147 147 147 340 340 207 207 207 207 207 207 229 229 229 229 229 18 18 18
 18 18 148 148 148 148 148 148 173 173 173 147 81 81 81 90 207 207 207 207
 266 266 229 229 229 229 229 365 365 301 3 4 4 4 148 148 148 148 148 148
 323 323 162 162 162 90 90 90 266 266 266 266 378 378 378 378 378 31 31 190
 3 3 4 4 4 211 211 211 211 211 323 323 162 162 162 90 90 90 266 266
 266 266 378 378 378 378 31 31 31 31 3 3 4 4 4 211 211 211 211 211
 211 323 162 162 162 90 90 266 266 266 363 363 378 378 378 80 31 31 31 31
 3 3 3 4 4 211 211 211 300 300 104 104 19 19 19 19 19 363 363 363
 363 363 40 40 80 80 80 31 31 31 3 3 3 4 4 300 300 300 300 300
 104 104 19 19 19 19 19 10 363 363 363 363 40 40 80 80 80 31 31 31
 3 3 3 4 300 300 300 300 300 300 104 104 377 377 19 19 19 10 363 363
 363 40 40 40 80 80 80 80 49 49 49 49 3 4 300 300 300 300 300 300
 104 104 377 377 377 19 19 10 10 363 291 291 291 291 291 80 80 49 49 49
 49 49 49 26 300 300 300 300 300 300 104 104 377 377 377 377 77 77 77 77
 291 291 291 291 291 291 80 49 49 49 49 49 49 26 300 300 300 300 300 117
 116 116 377 377 377 377 77 77 77 77 291 291 291 291 291 291 309 309 49 49
 49 49 26 26 26 300 300 300 117 117 116 116 116 377 377 77 77 77 77 77
 258 291 291 291 291 309 309 297 297 297 170 170 170 170 170 170 300 117 117 117
 116 116 116 116 377 77 77 77 77 77 292 292 291 291 309 309 309 297 297 297
 170 170 170 170 170 170 170 117 117 117 116 116 116 116 343 343 343 77 77 77
 292 292 292 292 309 297 297 297 297 297 170 170 170 170 170 170 170 117 117 98
 98 98 98 98 28 343 343 21 21 292 292 292 292 292 297 297 297 297 297 297
 170 170 170 170 170 170 170 170 98 98 98 98 98 28 28 28 21 21 21 292
 292 292 292 292 83 297 297 297 297 227 227 170 170 170 170 170 304 304 366 98
 98 98 6 28 28 28 28 21 21 292 261 261 261 83 83 83 297 297 227 227
 227 170 170 170 170 304 304 304 22 22 22 98 6 6 28 28 28 21 21 292
 261 83 83 83 83 83 297 297 227 227 227 170 170 170 304 304 304 304 22 22
 22 22 6 6 28 28 28 192 192 292 83 83 83 83 83 83 83 62 62 227
 227 170 170 167 304 304 304 304 22 22 22 102 102 6 166 166 166 192 192 192
 83 83 83 83 83 83 62 62 62 62 62 167 167 167 167 5 109 109 22 22
 22 102 102 282 166 166 166 192 192 192 83 83 83 83 83 83 62 62 62 62
 167 167 167 167 167 5 109 109 22 22 102 102 282 282 282 282 302 302 302 302
 83 83 83 83 209 209 62 62 62 62 167 167 167 167 167 5 109 109 371 371
 371 282 282 282 282 282 302 302 302 302 69 69 83 209 209 209 209 62 62 62
 167 167 167 167 167 144 144 84 84 84 371 282 282 282 282 282 302 302 302 302
 69 69 69 69 209 209 209 209 307 307 307 167 167 167 144 144 144 84 84 84
 84 282 282 282 282 282 302 302 302 302 69 69 69 69 69 209 209 209 307 307
 307 167 259 144 144 144 144 84 84 84 84 14 282 282 282 282 199 302 302 199
 69 69 69 69 69 267 267 267 307 307 307 307 259 144 144 144 144 132 84 84
 84 14 14 14 14 175 175 175 175 199 354 69 69 69 267 267 267 18 18 18
 18 381 144 144 144 144 132 132 132 173 173 173 340 340 175 175 175 175 175 354
 354 69 69 92 92 92 92 18 18 18 18 18 18 144 144 144 132 132 173 173
 173 173 340 340 340 175 175 175 207 207 207 229 229 92 92 92 92 18 18 18
 18 18 18 148 148 148 148 173 173 173 173 173 340 340 340 175 207 207 207 207
 207 229 229 229 92 92 92 18 18 18 18 18 18 148 148 148 148 148 173 173
 173 173 340 340 340 340 207 207 207 207 207 229 229 229 229 229 92 18 18 18
 18 18 148 148 148 148 148 148 173 173 173 173 340 162 162 90 90 207 207 207
 266 266 229 229 229 229 365 365 365 108 3 4 4 148 148 148 148 148 364 364
 323 323 323 162 162 90 90 90 266 266 266 266 378 378 229 229 365 365 108 108
 3 3 4 4 4 148 148 364 364 364 323 323 323 162 162 90 90 90 266 266
 266 266 378 378 378 378 31 31 31 3 3 3 4 4 4 364 364 364 364 364
 364 323 162 162 162 90 90 266 266 266 266 266 378 378 80 80 80 31 31 31
 3 3 3 4 4 364 364 364 364 364 364 240 240 240 240 19 110 110 266 266
 363 363 40 40 80 80 80 31 31 31 3 3 3 3 364 364 364 300 300 104
 104 240 240 240 240 19 10 10 10 363 363 40 40 40 80 80 80 80 202 202
 202 3 3 3 300 300 300 300 300 104 104 104 377 377 377 19 10 10 10 363
 363 40 40 40 80 80 80 80 49 49 49 49 3 139 300 300 300 300 300 104
 104 104 377 377 377 377 10 10 10 363 291 291 291 291 291 80 80 49 49 49
 49 49 49 139 300 300 300 300 300 104 104 104 377 377 377 377 77 77 77 77
 291 291 291 291 291 291 309 49 49 49 49 49 49 139 300 300 300 300 117 117
 117 345 377 377 377 77 77 77 77 77 77 291 291 291 291 309 309 309 49 49
 49 49 170 170 170 300 300 117 117 117 345 345 345 377 377 77 77 77 77 77
 77 291 291 291 291 309 309 309 297 297 49 170 170 170 170 170 117 117 117 117
 117 345 345 377 377 77 77 77 77 77 292 292 291 291 309 309 309 297 297 297
 170 170 170 170 170 170 170 117 117 117 117 345 345 377 377 77 77 77 77 77
 292 292 292 292 309 309 297 297 297 297 170 170 170 170 170 170 170 117 117 98
 98 98 98 98 140 140 140 140 140 292 292 292 292 292 297 297 297 297 297 297
 170 170 170 170 170 170 170 71 98 98 98 98 98 98 28 140 140 140 140 292
 292 292 292 292 83 297 297 297 297 297 170 170 170 170 170 170 304 304 98 98
 98 98 98 6 6 28 140 140 140 292 292 292 83 83 83 83 297 297 297 297
 170 170 170 170 304 304 304 304 304 98 98 98 6 6 6 28 140 140 140 292
 83 83 83 83 83 83 297 297 297 297 227 170 170 170 304 304 304 304 22 102
 102 102 6 6 6 28 140 140 140 292 83 83 83 83 83 83 83 62 62 214
 214 170 170 170 304 304 304 304 22 102 102 102 102 6 166 166 166 140 140 292
 83 83 83 83 83 83 62 62 62 62 62 167 167 167 109 109 109 109 371 102
 102 102 102 102 282 166 302 302 302 302 83 83 83 83 83 83 62 62 62 62
 62 167 167 167 109 109 109 109 371 371 102 102 102 282 282 302 302 302 302 302
 302 83 83 83 209 209 209 62 62 62 62 167 167 167 109 109 109 109 371 371
 371 102 282 282 282 302 302 302 302 302 302 83 83 209 209 209 209 62 62 265
 265 167 167 167 144 144 144 371 371 371 371 282 282 282 282 302 302 302 302 302
 302 69 69 209 209 209 209 209 307 307 307 167 167 144 144 144 144 84 84 84
 371 371 282 282 282 302 302 302 302 302 69 69 69 69 69 209 209 209 307 307
 307 307 167 144 144 144 144 84 84 84 84 371 282 282 282 302 302 302 302 302
 69 69 69 69 267 267 267 267 307 307 307 307 144 144 144 144 144 132 132 84
 84 371 282 282 282 175 175 175 175 91 253 69 69 69 267 267 267 267 18 18
 307 307 144 144 144 144 132 132 132 173 173 173 340 340 175 175 175 175 175 175
 207 229 229 92 92 267 267 365 365 18 18 18 144 144 144 144 132 132 173 173
 173 173 340 340 340 175 175 175 207 207 207 229 229 229 92 92 92 365 365 18
 18 18 145 148 148 148 148 173 173 173 173 173 340 340 340 340 207 207 207 207
 207 229 229 229 229 92 365 365 365 18 18 18 145 148 148 148 148 148 173 173
 173 173 340 340 340 340 207 207 207 207 266 229 229 229 229 229 365 365 365 365
 18 148 148 148 148 148 148 148 173 173 173 323 323 162 162 90 90 207 207 207
 266 229 229 229 229 229 365 365 365 108 108 108 4 148 148 148 148 364 364 364
 323 323 323 162 162 162 90 90 266 266 266 266 229 229 229 229 194 194 108 108
 108 3 4 4 364 364 364 364 364 364 323 323 323 162 162 90 90 266 266 266
 266 266 378 378 229 229 194 108 108 108 3 3 3 4 364 364 364 364 364 364
 364 323 240 162 162 90 110 110 266 266 266 266 378 40 80 80 80 202 202 202
 3 3 3 364 364 364 364 364 364 364 364 240 240 240 240 110 110 110 110 266
 363 40 40 40 80 80 80 202 202 202 202 3 3 364 364 364 364 364 364 364
 240 240 240 240 240 240 110 110 110 110 363 40 40 40 80 80 80 202 202 202
 202 202 3 3 364 364 364 300 300 104 104 104 240 240 240 240 10 10 10 363
 40 40 40 40 80 80 80 202 202 202 202 202 139 139 139 300 300 300 300 104
 104 104 104 377 377 377 10 10 10 219 291 291 291 291 291 80 80 49 49 49
 49 49 139 139 139 300 300 300 117 104 104 104 104 377 377 377 77 77 77 77
 291 291 291 291 291 291 309 49 49 49 49 49 139 139 139 300 300 117 117 117
 117 104 377 377 377 77 77 77 77 77 77 291 291 291 291 309 309 309 49 49
 49 49 139 139 139 300 117 117 117 117 117 345 345 377 377 77 77 77 77 77
 77 291 291 291 309 309 309 309 297 297 49 170 170 170 170 170 117 117 117 117
 117 345 345 377 377 77 77 77 77 77 292 292 291 291 309 309 309 297 297 297
 170 170 170 170 170 170 117 117 117 117 117 98 98 377 140 140 140 140 140 140
 292 292 292 292 309 344 297 297 297 297 170 170 170 170 170 170 71 71 71 98
 98 98 98 98 140 140 140 140 140 140 292 292 292 292 344 344 297 297 297 297
 170 170 170 170 170 170 71 71 71 98 98 98 98 98 140 140 140 140 140 140
 292 292 292 292 344 344 297 297 297 297 369 369 170 170 170 170 71 71 71 98
 98 98 98 6 6 140 140 140 140 140 292 292 83 83 83 83 297 297 297 369
 369 369 369 170 170 304 304 304 71 98 98 98 6 6 6 140 140 140 140 140
 83 83 83 83 83 83 376 297 214 214 214 369 369 170 304 304 304 304 102 102
 102 102 6 6 6 140 140 140 140 140 83 83 83 83 83 83 376 62 214 214
 214 214 369 170 304 109 109 109 102 102 102 102 102 6 6 140 140 140 140 76
 83 83 83 83 83 83 376 62 62 214 214 214 167 167 109 109 109 109 371 102
 102 102 102 102 282 302 302 302 302 302 83 83 83 83 83 83 62 62 62 62
 265 167 167 167 109 109 109 109 371 371 102 102 102 282 282 302 302 302 302 302
 302 83 83 83 209 209 209 62 62 265 265 265 167 167 109 109 109 371 371 371
 371 371 282 282 282 302 302 302 302 302 302 302 83 209 209 209 209 62 265 265
 265 265 167 144 144 144 144 371 371 371 371 371 282 282 282 302 302 302 302 302
 302 302 69 209 209 209 209 209 265 265 265 265 167 144 144 144 144 371 371 371
 371 371 282 282 282 302 302 302 302 302 302 69 69 69 209 209 209 209 307 307
 307 307 144 144 144 144 144 144 371 371 371 371 282 282 282 302 302 302 91 91
 253 253 69 69 267 267 267 267 307 307 307 307 144 144 144 144 144 132 132 371
 371 371 282 282 282 302 175 91 91 91 253 253 253 253 267 267 267 365 365 307
 307 145 145 144 144 144 144 132 132 173 173 173 340 340 340 175 175 91 91 91
 253 253 253 253 267 267 365 365 365 365 145 145 145 144 144 144 144 132 173 173
 173 173 340 340 340 340 175 175 207 253 253 253 229 229 92 92 365 365 365 365
 145 145 145 145 148 148 148 148 173 173 173 173 340 340 340 340 207 207 207 207
 253 229 229 229 229 365 365 365 365 365 145 145 145 145 148 148 148 148 173 173
 173 323 323 340 340 340 90 207 207 207 266 229 229 229 229 229 365 365 365 365
 145 145 145 148 148 148 148 148 173 323 323 323 323 162 162 162 90 90 266 266
 266 229 229 229 229 194 194 365 108 108 108 145 145 148 148 148 364 364 364 323
 323 323 323 162 162 162 90 90 266 266 266 266 229 229 194 194 194 194 108 108
 108 108 4 364 364 364 364 364 364 364 323 323 323 162 162 162 110 110 266 266
 266 266 378 378 194 194 194 194 108 108 108 3 3 364 364 364 364 364 364 364
 364 323 240 240 162 110 110 110 110 266 266 101 378 40 80 80 80 202 202 202
 202 3 3 364 364 364 364 364 364 364 245 240 240 240 240 110 110 110 110 110
 101 101 40 40 80 80 80 202 202 202 202 202 3 364 364 364 364 364 364 245
 245 240 240 240 240 240 110 110 110 110 219 114 114 114 80 80 80 202 202 202
 202 202 3 364 364 364 364 364 364 245 245 240 240 240 240 240 110 219 219 219
 114 114 114 114 114 80 80 202 202 202 202 202 139 139 139 364 300 300 245 245
 104 104 240 240 240 240 110 219 219 219 114 114 114 114 114 80 80 202 202 202
 202 202 139 139 139 139 300 300 117 104 104 104 377 377 377 377 77 77 77 77
 291 291 291 291 291 309 309 49 49 49 49 202 139 139 139 139 298 117 117 117
 117 104 377 377 377 77 77 77 77 77 77 291 291 291 291 309 309 309 49 49
 49 202 139 139 139 139 117 117 117 117 117 345 361 361 361 77 77 77 77 77
 291 291 291 291 309 309 309 309 297 331 331 170 170 170 58 58 117 117 117 117
 117 345 361 361 361 77 140 77 77 77 292 292 291 291 309 309 309 297 297 297
 331 170 170 170 170 58 71 117 117 117 117 98 361 361 140 140 140 140 140 140
 292 292 292 292 344 344 344 297 297 297 170 170 170 170 170 170 71 71 71 98
 98 98 98 200 140 140 140 140 140 140 292 292 292 292 344 344 344 297 297 297
 369 170 170 170 170 170 71 71 71 98 98 98 98 200 140 140 140 140 140 140
 292 292 292 83 344 344 297 297 297 369 369 369 369 170 339 339 71 71 71 98
 98 98 98 200 140 140 140 140 140 140 292 292 83 83 376 376 376 297 297 369
 369 369 369 369 339 339 339 339 71 98 98 98 6 6 6 140 140 140 140 140
 76 83 83 83 376 376 376 376 214 214 214 369 369 369 339 339 339 339 96 102
 102 102 6 6 6 140 140 140 76 76 76 83 83 83 376 376 376 376 214 214
 214 214 369 369 339 109 109 109 102 102 102 102 102 6 6 140 140 76 76 76
 76 83 83 83 376 376 376 376 214 214 214 214 369 109 109 109 109 109 371 102
 102 102 102 102 302 302 302 302 76 76 76 83 83 83 376 376 376 62 62 265
 265 265 265 109 109 109 109 109 371 371 371 102 102 282 302 302 302 302 302 302
 302 83 83 83 209 209 209 62 265 265 265 265 265 109 109 109 109 371 371 371
 371 371 371 282 302 302 302 302 302 302 302 302 83 209 209 209 209 265 265 265
 265 265 265 118 144 144 371 371 371 371 371 371 282 282 302 302 302 302 302 302
 302 302 69 209 209 209 36 36 265 265 265 265 118 118 144 144 144 371 371 371
 371 371 371 282 302 302 302 302 302 302 302 253 253 198 198 198 36 36 36 265
 265 265 118 118 144 144 144 371 371 371 371 371 371 282 302 302 302 91 91 91
 253 253 253 198 198 198 198 36 36 36 307 118 118 144 144 144 144 144 371 371
 371 371 371 99 99 99 302 91 91 91 253 253 253 198 198 198 159 159 159 159
 145 145 145 144 144 144 144 144 132 173 371 371 340 99 99 99 99 91 91 253
 253 253 253 253 253 365 365 365 365 365 145 145 145 145 144 144 144 144 173 173
 173 323 340 340 99 99 99 303 253 253 253 253 253 253 253 365 365 365 365 365
 145 145 145 145 145 148 148 148 173 323 323 323 340 340 99 99 99 303 253 253
 253 253 253 229 229 365 365 365 365 365 145 145 145 145 145 148 148 148 173 323
 323 323 323 323 340 99 303 303 253 253 253 253 229 229 229 365 365 365 365 365
 145 145 145 145 148 148 148 148 148 323 323 323 323 323 162 162 90 90 266 266
 253 253 253 229 194 194 194 365 365 108 108 145 145 145 364 364 364 364 364 323
 323 323 323 172 172 172 172 172 266 266 266 253 229 229 194 194 194 194 108 108
 108 108 145 364 364 364 364 364 364 364 323 323 323 172 172 172 110 110 110 266
 101 101 101 194 194 194 194 194 108 108 108 3 364 364 364 364 364 364 364 364
 245 245 240 240 172 110 110 110 110 110 101 101 101 194 194 194 194 174 202 202
 202 202 3 364 364 364 364 364 364 364 245 245 240 240 240 110 110 110 110 110
 101 101 101 114 80 174 174 174 202 202 202 202 3 364 364 364 364 364 364 245
 245 245 240 240 240 240 110 110 219 219 219 114 114 114 114 174 174 174 202 202
 202 202 202 364 364 364 364 364 245 245 245 245 240 240 240 240 110 219 219 219
 219 114 114 114 114 114 174 174 202 202 202 202 139 139 139 298 298 298 245 245
 245 245 240 240 240 240 240 219 219 219 114 114 114 114 114 114 174 174 202 202
 202 202 139 139 139 298 298 298 245 245 245 245 240 240 240 240 85 85 219 219
 114 114 114 114 114 236 236 236 49 49 202 139 139 139 139 298 298 298 117 245
 245 361 361 361 361 361 163 163 163 77 114 114 114 114 236 236 236 236 236 331
 331 139 139 139 139 298 298 117 117 117 117 361 361 361 361 361 163 163 163 163
 291 291 279 279 236 236 236 236 331 331 331 331 170 58 58 58 58 117 97 97
 97 361 361 361 361 361 163 163 163 77 292 292 279 279 279 236 236 297 331 331
 331 331 170 170 58 58 58 58 97 97 97 361 361 361 361 140 140 140 140 140
 140 292 279 279 279 344 344 297 331 331 331 170 170 170 58 58 58 71 71 97
 97 98 200 200 200 140 140 140 140 140 140 292 292 292 344 344 344 297 297 297
 369 170 170 339 339 339 71 71 71 96 98 200 200 200 200 140 140 140 140 140
 140 292 292 83 344 344 376 297 297 369 369 369 369 339 339 339 339 71 96 96
 96 96 200 200 200 140 140 140 140 140 76 76 83 376 376 376 376 376 297 369
 369 369 369 339 339 339 339 339 96 96 96 96 200 6 200 140 140 140 140 76