# vtk DataFile Version 2.0
Data set from IO Version 6.4.197.9a0dee2
ASCII

DATASET RECTILINEAR_GRID
DIMENSIONS 31 31 31
X_COORDINATES 31 float
-4.116666 4.116666 12.349998 20.583330 28.816664 37.049999 45.283329 53.516663 61.749996 69.983322 78.216660 86.449989 94.683319 102.916656 111.149986 119.383324 127.616653 135.849991 144.083313 152.316650 160.549988 
168.783310 177.016647 185.249985 193.483307 201.716644 209.949982 218.183319 226.416641 234.649979 242.883316 
Y_COORDINATES 31 float
-4.116666 4.116666 12.349998 20.583330 28.816664 37.049999 45.283329 53.516663 61.749996 69.983322 78.216660 86.449989 94.683319 102.916656 111.149986 119.383324 127.616653 135.849991 144.083313 152.316650 160.549988 
168.783310 177.016647 185.249985 193.483307 201.716644 209.949982 218.183319 226.416641 234.649979 242.883316 
Z_COORDINATES 31 float
-4.116666 4.116666 12.349998 20.583330 28.816664 37.049999 45.283329 53.516663 61.749996 69.983322 78.216660 86.449989 94.683319 102.916656 111.149986 119.383324 127.616653 135.849991 144.083313 152.316650 160.549988 
168.783310 177.016647 185.249985 193.483307 201.716644 209.949982 218.183319 226.416641 234.649979 242.883316 
CELL_DATA 27000
SCALARS FeatureIds int 1
LOOKUP_TABLE default
 291 291 291 140 140 140 140 208 208 208 208 196 196 200 200 200 200 200 200 50
 50 50 50 50 239 82 82 82 82 82 291 291 291 140 140 140 140 271 271 208
 208 200 200 200 200 200 200 200 214 214 50 50 50 239 239 239 239 239 82 82
 392 392 291 126 126 126 126 271 271 271 271 145 145 145 200 200 214 214 214 214
 214 50 50 239 239 239 239 239 239 239 392 392 392 126 126 126 126 271 271 271
 271 145 145 145 145 145 214 214 214 214 214 359 359 239 239 239 239 239 239 239
 392 392 392 126 126 126 126 271 271 271 34 34 145 145 145 145 214 214 214 214
 234 359 359 359 359 239 239 239 239 239 392 392 392 274 274 274 274 274 271 34
 34 34 34 145 145 145 214 214 214 234 234 234 359 359 359 239 239 239 239 392
 392 392 392 274 274 274 274 274 274 34 34 34 34 366 366 145 214 177 177 234
 234 234 234 359 359 359 239 239 239 392 392 392 392 274 274 274 274 274 274 34
 34 34 366 366 366 366 177 177 177 234 234 234 234 234 234 359 223 223 223 121
 121 121 121 49 49 49 49 49 49 256 256 366 366 366 366 366 177 177 234 234
 234 234 234 234 234 234 223 223 223 121 121 121 121 49 49 49 49 49 49 256
 256 312 312 312 312 312 312 177 234 234 234 234 234 234 234 223 13 13 121 121
 121 121 121 24 49 49 49 49 131 131 312 312 312 312 312 312 312 211 211 234
 234 234 234 234 234 13 13 13 13 121 121 121 24 24 24 49 49 131 131 131
 131 312 312 312 312 312 312 289 289 211 234 234 234 346 346 346 13 13 13 13
 262 24 24 24 24 152 152 131 131 131 131 312 312 312 312 312 289 289 289 289
 289 120 120 346 346 346 346 13 13 13 262 262 24 24 152 152 152 152 131 131
 131 131 10 10 10 10 289 289 289 289 289 379 120 346 346 346 346 346 262 262
 262 262 262 152 152 152 152 152 131 131 131 10 10 10 10 10 289 289 289 289
 379 379 379 346 346 346 346 346 262 262 262 262 218 218 218 152 152 152 131 131
 131 10 10 10 10 10 10 289 289 379 379 379 379 346 346 346 346 346 262 262
 262 262 218 218 218 218 218 152 354 131 131 10 10 10 10 10 10 289 289 379
 379 379 379 346 346 346 346 262 262 262 341 341 218 218 218 218 218 218 1 1
 1 10 10 10 10 10 10 10 242 379 379 379 379 346 346 346 346 262 262 262
 341 341 218 218 218 218 218 45 1 1 1 1 10 10 146 146 146 146 146 141
 141 141 141 141 249 249 249 249 341 341 341 341 218 218 218 349 45 45 45 1
 1 1 39 146 146 146 146 146 146 141 141 141 141 141 249 249 249 249 249 341
 341 349 349 349 349 349 45 45 45 45 1 1 39 39 146 146 146 146 146 141
 141 141 141 141 123 249 249 284 284 284 29 29 349 349 349 349 349 45 45 45
 1 39 39 39 39 39 146 185 185 141 141 141 141 141 123 123 284 284 284 29
 29 29 349 349 100 100 45 45 45 45 45 39 39 39 39 39 185 185 185 185
 141 141 141 123 123 123 284 284 284 29 29 29 29 100 100 100 100 45 45 45
 45 39 39 39 39 39 185 185 185 296 141 123 123 123 123 123 123 29 29 29
 29 29 29 100 100 100 100 100 45 276 276 39 39 39 39 39 185 185 296 296
 296 123 123 123 123 123 123 29 29 29 29 29 29 100 100 100 100 100 276 276
 276 276 39 39 39 39 185 185 296 156 156 123 123 123 123 123 123 123 29 29
 29 314 314 314 100 100 100 276 208 276 276 276 144 144 144 39 156 156 156 156
 156 197 197 123 123 123 123 83 29 29 29 314 314 314 100 100 208 208 208 208
 208 276 196 196 196 156 156 156 156 156 50 50 197 197 123 123 83 82 82 82
 291 291 291 140 140 140 208 208 208 208 208 196 196 196 196 200 156 156 156 156
 50 50 50 50 123 82 82 82 82 82 291 291 291 140 140 140 140 208 208 208
 208 196 196 196 200 200 200 200 156 50 50 50 50 50 50 82 82 82 82 82
 291 291 291 291 140 140 140 208 208 208 208 196 196 196 196 200 200 214 214 50
 50 50 50 50 239 82 82 82 82 82 291 291 291 291 126 126 126 126 271 208
 304 304 196 200 200 200 214 214 214 214 50 50 50 239 239 239 82 82 82 82
 291 291 291 126 126 126 126 126 271 271 304 304 145 145 145 214 214 214 214 214
 214 50 359 239 239 239 239 239 239 239 392 392 392 126 126 126 126 126 271 271
 34 145 145 145 145 214 214 214 214 214 214 359 359 359 239 239 239 239 239 239
 392 392 392 126 126 126 126 126 271 34 34 34 34 145 145 214 214 214 214 214
 234 359 359 359 359 239 239 239 239 239 392 392 392 274 274 274 274 274 274 34
 34 34 34 145 145 214 214 214 214 234 234 234 359 359 359 359 239 286 286 392
 392 392 392 274 274 274 274 274 274 34 34 34 34 366 366 214 214 214 234 234
 234 234 234 359 359 359 239 286 286 392 121 121 121 274 274 274 274 274 274 34
 34 34 366 366 366 366 214 177 234 234 234 234 234 234 234 223 223 223 223 121
 121 121 121 121 49 49 49 49 256 256 256 256 366 366 366 366 358 358 234 234
 234 234 234 234 234 223 223 223 223 121 121 121 121 121 49 49 49 49 256 256
 256 256 312 312 312 312 358 358 234 234 234 234 234 234 234 223 223 223 223 121
 121 121 121 121 49 49 49 49 131 256 256 312 312 312 312 312 358 211 211 211
 234 234 234 234 234 223 223 223 223 121 121 121 121 24 24 49 250 131 131 131
 131 131 312 312 312 312 312 211 211 211 211 211 234 234 346 346 223 223 223 121
 121 121 24 24 24 152 152 131 131 131 131 131 10 10 10 10 289 289 289 211
 211 211 120 346 346 346 346 346 13 262 262 262 24 24 152 152 152 131 131 131
 131 131 10 10 10 10 289 289 289 289 289 379 346 346 346 346 346 346 262 262
 262 262 386 152 152 152 152 152 131 131 131 10 10 10 10 10 289 289 289 289
 379 379 379 229 346 346 346 346 262 262 262 262 262 218 152 152 152 152 131 131
 131 10 10 10 10 10 289 289 289 289 379 379 379 229 346 346 346 346 262 262
 262 262 218 218 218 218 354 354 354 354 131 10 10 10 10 10 10 242 242 379
 379 379 379 229 346 346 346 262 262 262 341 341 218 218 218 218 354 354 354 354
 104 104 10 10 10 10 10 242 242 379 379 379 379 229 249 249 249 249 341 341
 341 341 218 218 218 218 354 354 354 354 1 104 10 10 10 146 146 242 242 242
 379 141 141 249 249 249 249 249 341 341 341 341 218 349 349 349 349 45 45 45
 1 1 39 10 146 146 146 146 242 242 141 141 141 141 249 249 249 249 249 341
 341 341 349 349 349 349 349 349 45 45 1 39 39 39 39 39 146 185 224 224
 141 141 141 123 123 249 249 249 249 249 29 349 349 349 349 349 349 349 45 45
 45 39 39 39 39 39 185 185 185 224 141 141 141 123 123 123 249 249 249 249
 29 29 349 349 349 349 349 349 45 45 45 39 39 39 39 39 185 185 185 185
 141 123 123 123 123 123 123 249 249 29 29 314 314 349 349 349 349 349 276 276
 276 39 39 39 39 39 185 185 185 185 185 123 123 123 123 123 123 123 29 29
 314 314 314 314 100 100 100 276 276 276 276 276 39 39 39 39 185 185 185 185
 123 123 123 123 123 123 123 123 29 29 314 314 314 314 100 100 100 276 276 276
 276 276 144 144 144 144 185 185 156 156 156 123 123 123 123 123 123 123 29 314
 314 314 314 314 314 100 276 276 276 276 276 276 144 144 144 144 156 156 156 156
 156 197 123 123 123 123 123 123 82 314 314 314 314 314 314 27 276 276 276 276
 276 276 196 196 196 156 156 156 156 156 156 50 123 123 123 123 82 82 82 314
 291 291 291 291 291 140 27 208 208 208 208 196 196 196 196 196 156 156 156 156
 156 50 50 50 123 82 82 82 82 82 291 291 291 291 291 140 140 208 208 208
 196 196 196 196 196 196 200 156 156 156 50 50 50 50 50 82 82 82 82 82
 291 291 291 291 291 140 126 27 267 267 196 196 196 196 196 196 214 214 214 214
 50 50 50 50 82 82 82 82 82 82 291 291 291 291 126 126 126 126 126 304
 304 304 196 196 196 214 214 214 214 214 214 50 138 239 239 82 82 82 82 82
 291 291 291 291 126 126 126 126 126 304 304 304 304 304 214 214 214 214 214 214
 214 138 359 359 239 239 239 82 82 82 291 291 291 126 126 126 126 126 271 304
 304 304 304 304 214 214 214 214 214 214 214 214 359 359 239 239 239 239 239 239
 153 153 153 126 126 126 126 126 126 385 385 34 34 145 145 214 214 214 214 214
 234 234 359 359 359 359 286 286 286 286 153 153 153 274 274 274 274 274 274 385
 385 34 34 145 145 210 210 210 214 234 234 234 359 359 359 359 286 286 286 286
 153 153 301 301 274 274 274 274 385 385 385 385 385 385 210 210 210 210 210 234
 234 234 234 359 359 359 286 286 286 286 121 121 301 301 274 274 274 274 256 385
 385 385 385 366 366 210 210 210 234 234 234 234 234 234 234 223 223 223 223 223
 121 121 121 121 49 49 49 256 256 256 256 256 256 366 366 358 358 358 358 234
 234 234 234 234 234 223 223 223 223 223 121 121 121 121 49 250 49 256 256 256
 256 256 256 312 312 358 358 358 358 211 234 234 234 234 234 223 223 223 223 223
 121 121 121 121 250 250 250 256 256 256 256 256 256 312 374 374 358 358 211 211
 211 234 234 383 383 223 223 223 223 223 121 121 121 250 250 250 250 131 131 131
 131 131 10 10 10 10 211 211 211 211 211 211 383 383 383 383 223 223 223 223
 121 121 121 250 250 250 250 131 131 131 131 131 10 10 10 10 289 289 211 211
 211 211 383 383 383 383 346 223 223 223 262 386 386 386 250 250 152 131 131 131
 131 10 10 10 10 10 289 289 289 193 193 193 229 229 383 346 346 346 262 262
 262 386 386 386 152 152 152 131 131 131 131 10 10 10 10 10 289 289 289 193
 193 379 229 229 229 346 346 346 262 262 262 386 386 386 386 152 354 354 131 131
 131 10 10 10 10 10 10 289 289 193 379 379 229 229 229 229 346 346 262 262
 341 341 386 386 218 354 354 354 354 354 104 104 10 10 10 10 242 242 242 242
 379 229 229 229 229 229 346 262 341 341 341 341 225 323 218 354 354 354 354 354
 104 104 104 10 10 10 242 242 242 242 191 229 229 229 229 249 249 249 341 341
 341 341 225 218 218 354 354 354 354 354 104 104 222 222 222 10 242 242 242 242
 191 229 229 229 249 249 249 249 249 341 341 341 225 349 349 349 349 354 354 354
 104 104 222 222 222 146 242 242 242 242 191 141 141 249 249 249 249 249 249 341
 341 341 255 255 349 349 349 349 349 45 39 39 39 39 39 224 224 224 224 224
 224 141 141 5 5 249 249 249 249 249 341 255 255 255 349 349 349 349 349 45
 39 39 39 39 39 39 224 224 224 224 224 123 123 123 5 5 249 249 249 249
 314 314 255 255 349 349 349 349 349 45 39 39 39 39 39 39 185 224 224 224
 224 123 123 123 123 123 123 249 249 249 314 314 314 349 349 349 349 349 276 276
 276 369 39 39 39 39 185 185 185 185 123 123 123 123 123 123 123 123 314 314
 314 314 314 314 349 349 349 276 276 276 276 276 144 144 144 39 185 185 185 185
 123 123 123 123 123 123 123 123 314 314 314 314 314 314 314 349 276 276 276 276
 276 276 144 144 144 144 185 185 156 156 156 123 123 123 123 123 123 123 314 314
 314 314 314 314 314 314 276 276 276 276 276 276 144 144 144 144 156 156 156 156
 156 156 123 123 123 123 123 123 314 314 314 314 314 314 314 27 27 276 276 276
 276 276 196 196 196 196 156 156 156 156 156 50 123 123 123 123 82 82 82 314
 291 291 291 291 291 27 27 27 276 276 276 196 196 196 196 196 196 156 156 156
 156 50 50 123 123 82 82 82 82 82 291 291 291 291 291 27 27 27 208 267
 196 196 196 196 196 196 196 156 156 156 156 50 50 50 137 137 82 82 82 82
 291 291 291 291 291 27 27 27 267 267 304 196 196 196 196 196 214 214 214 138
 138 138 138 115 115 137 115 82 82 291 291 291 291 291 291 53 126 27 267 304
 304 304 304 196 196 214 214 214 214 214 138 138 138 138 115 82 82 82 82 291
 291 291 291 291 126 126 126 126 304 304 304 304 304 304 214 214 214 214 214 214
 138 138 138 138 239 239 239 82 82 291 291 291 291 126 126 126 126 126 304 304
 304 304 304 304 214 214 214 214 214 214 214 138 359 359 359 239 286 286 286 285
 153 153 301 301 126 126 126 126 385 385 385 385 385 348 348 214 210 210 214 214
 234 234 359 359 359 57 286 286 286 286 153 153 301 301 274 274 274 274 385 385
 385 385 385 348 348 210 210 210 210 234 234 234 234 359 359 286 286 286 286 286
 153 153 301 301 301 274 274 274 385 385 385 385 385 348 348 210 210 210 210 234
 234 234 234 234 359 359 286 286 286 286 153 153 301 301 301 274 247 256 256 256
 385 385 385 348 348 210 210 376 376 234 234 234 234 234 234 223 223 223 223 223
 121 121 121 91 91 250 250 256 256 256 256 256 385 155 374 374 358 358 358 234
 234 234 234 234 226 223 223 223 223 223 223 121 121 91 91 250 250 256 256 256
 256 256 256 155 374 374 358 358 358 211 234 234 234 234 226 223 223 223 223 223
 121 121 121 91 250 250 250 250 256 256 256 256 155 155 374 374 374 358 211 211
 211 211 234 383 383 226 223 223 223 223 121 121 250 250 250 250 250 250 256 256
 256 125 10 10 10 374 374 211 211 211 211 211 383 383 383 383 223 223 223 223
 121 121 250 250 250 250 250 250 131 131 131 131 10 10 10 10 374 193 211 211
 211 193 383 383 383 383 223 223 223 223 386 386 386 386 250 250 250 131 131 131
 131 10 10 10 10 10 193 193 193 193 193 193 229 229 383 383 383 332 332 332
 386 386 386 386 12 12 12 12 131 131 131 10 10 10 10 10 193 193 193 193
 193 229 229 229 229 229 346 346 332 262 225 386 386 386 12 12 12 354 354 131
 131 104 10 10 10 10 10 193 193 193 193 229 229 229 229 229 346 297 297 262
 225 225 386 386 12 12 354 354 354 354 104 104 104 10 10 311 242 242 242 191
 191 229 229 229 229 229 297 297 297 341 225 225 225 323 323 354 354 354 354 354
 104 104 104 222 10 311 242 242 242 191 191 229 229 229 229 249 249 297 297 341
 341 225 225 323 323 354 354 354 354 354 104 104 222 222 222 311 242 242 242 191
 191 191 229 229 249 249 249 249 249 341 341 225 225 225 349 349 354 354 354 354
 104 104 222 222 222 311 242 242 242 191 191 191 5 5 5 249 249 249 249 341
 290 255 255 255 255 349 349 349 354 64 64 64 64 39 202 224 224 224 224 224
 224 141 5 5 5 5 249 249 249 249 290 255 255 255 255 349 349 349 349 64
 64 64 64 39 39 224 224 224 224 224 224 123 123 5 5 5 249 249 249 290
 290 314 255 255 255 349 349 349 349 64 64 64 64 39 39 224 224 224 224 224
 224 123 123 123 5 5 249 249 290 290 314 314 314 314 139 349 349 276 276 276
 369 369 369 122 39 39 224 224 224 224 224 123 123 123 123 123 123 123 290 314
 314 314 314 314 139 139 276 276 276 276 276 369 144 144 144 144 182 182 182 182
 123 123 123 123 123 123 123 217 314 314 314 314 314 314 314 139 276 276 276 276
 276 276 144 144 144 144 182 182 182 156 156 123 123 123 123 123 123 217 314 314
 314 314 314 314 314 314 276 276 276 276 276 276 144 144 144 144 182 182 156 156
 156 54 123 123 331 331 331 217 314 314 314 314 314 314 95 27 27 27 276 276
 276 276 196 196 196 196 182 156 156 156 54 54 54 331 331 331 331 82 314 314
 291 291 291 291 291 27 27 27 267 267 267 196 196 196 196 196 196 156 156 156
 54 54 54 331 115 137 115 82 82 314 291 291 291 291 291 27 27 27 267 267
 267 196 196 196 196 196 196 156 156 156 138 54 138 137 137 137 137 82 82 291
 291 291 291 291 53 53 27 27 267 267 267 304 196 196 196 196 196 319 287 287
 138 138 138 115 115 115 115 115 285 291 291 291 291 291 53 53 53 27 267 304
 304 304 304 258 258 258 214 214 214 138 138 138 138 138 115 115 115 115 285 291
 291 291 291 291 53 53 53 27 304 304 304 304 304 304 258 214 214 214 214 138
 138 138 138 138 115 115 115 285 285 285 285 291 291 291 53 53 53 53 304 304
 304 304 304 304 348 214 214 214 214 214 138 138 138 138 306 57 286 286 285 285
 153 153 301 301 301 126 126 126 304 304 385 385 348 348 348 348 210 210 214 214
 138 306 306 306 306 57 57 286 286 285 153 153 301 301 301 274 274 274 385 385
 385 385 348 348 348 348 210 210 210 234 234 306 306 306 306 57 57 286 286 286
 153 301 301 301 301 247 247 247 385 385 385 385 385 348 348 210 210 376 376 376
 234 234 306 306 306 57 57 286 286 286 220 301 301 301 247 247 247 247 256 256
 147 147 385 348 348 376 376 376 376 376 234 234 234 234 226 226 292 292 292 223
 121 121 91 91 91 247 247 256 256 256 256 147 155 155 155 374 376 376 376 376
 234 234 234 226 226 226 223 223 223 223 223 91 91 91 91 250 250 250 256 256
 256 256 155 155 155 374 374 358 358 211 211 234 234 226 226 226 223 223 223 223
 91 91 91 91 250 250 250 250 256 256 125 125 155 155 374 374 374 374 211 211
 211 211 383 383 226 226 226 223 223 223 91 91 91 250 250 250 250 250 125 125
 125 125 179 179 179 374 374 374 211 211 211 211 383 383 383 383 226 223 223 223
 250 250 250 250 250 250 250 250 125 125 125 125 179 179 179 179 193 193 193 193
 193 193 383 383 383 383 226 223 332 223 386 386 386 386 250 250 250 250 125 125
 162 179 179 179 179 179 193 193 193 193 193 193 229 383 383 383 383 332 332 332
 386 386 386 386 12 12 12 12 162 162 162 179 179 179 179 179 193 193 193 193
 193 193 229 229 229 229 229 332 332 332 225 386 386 386 12 12 12 12 354 354
 162 104 10 10 10 311 311 193 193 193 193 229 229 229 229 229 297 297 297 225
 225 225 225 323 12 12 12 354 354 354 104 104 104 10 311 311 311 242 191 191
 191 229 229 229 229 229 297 297 297 297 225 225 225 323 323 12 354 354 354 354
 104 104 104 222 311 311 311 242 191 191 191 191 229 229 229 229 297 297 297 297
 225 225 225 323 323 354 354 354 354 84 104 104 222 222 311 311 311 242 191 191
 191 191 229 229 229 249 297 297 297 297 225 225 225 225 353 353 354 354 354 84
 84 202 202 202 202 311 311 242 191 191 191 191 5 5 5 249 249 249 297 297
 290 290 255 255 353 353 353 353 195 195 64 64 202 202 202 224 224 224 224 224
 59 59 5 5 5 5 249 249 290 290 290 290 255 255 353 353 353 353 195 64
 64 64 64 122 122 224 224 224 224 224 59 59 5 5 5 5 249 249 290 290
 290 290 255 255 353 353 353 353 64 64 64 64 64 122 122 122 224 224 224 224
 59 59 123 123 5 5 249 290 290 290 314 314 314 139 139 139 139 276 276 276
 64 64 122 122 122 122 224 224 224 224 59 59 123 123 123 123 217 217 290 290
 314 314 314 314 139 139 139 276 276 276 276 276 122 144 144 182 182 182 182 182
 182 123 123 123 123 123 217 217 217 314 314 314 314 314 373 373 139 276 276 276
 276 276 144 144 144 182 182 182 182 182 182 257 257 257 331 331 217 217 217 314
 314 314 314 95 95 373 81 276 276 276 276 276 144 144 144 182 182 182 182 182
 54 54 54 331 331 331 331 217 217 314 314 314 95 95 95 27 27 27 276 276
 276 276 58 58 58 182 182 182 182 182 54 54 54 331 331 331 331 331 314 314
 291 291 291 95 95 27 27 27 267 267 267 196 196 196 196 196 182 156 156 156
 54 54 54 331 115 115 115 331 82 291 291 291 291 291 291 27 27 27 267 267
 267 196 196 196 196 196 196 156 319 138 138 138 138 115 115 115 115 115 82 291
 291 291 291 291 53 53 27 27 267 267 267 304 258 258 258 258 319 319 287 287
 138 138 138 138 115 115 115 115 285 291 291 291 291 291 53 53 53 53 267 267
 304 304 258 258 258 258 258 319 319 287 138 138 138 138 115 115 115 285 285 285
 285 291 291 291 53 53 53 53 304 304 304 304 304 258 258 258 214 272 272 275
 138 138 138 138 115 115 285 285 285 285 285 220 220 220 53 53 53 53 304 304
 304 304 304 348 348 348 272 272 272 275 275 138 138 306 306 57 285 285 285 285
 220 220 220 301 301 53 53 186 186 304 304 304 348 348 348 348 210 272 272 275
 275 275 306 306 306 57 57 57 285 285 220 220 301 301 301 301 247 186 186 186
 385 348 348 348 348 348 210 376 376 376 275 306 306 306 306 57 57 57 285 220
 220 220 301 301 247 247 247 186 186 186 147 147 348 348 348 348 376 376 376 376
 234 306 306 306 306 57 292 292 292 292 220 220 220 91 247 247 247 247 186 186
 147 147 147 348 348 376 376 376 376 376 234 234 306 306 226 226 292 292 292 292
 220 91 91 91 91 247 247 247 125 125 147 147 155 155 155 374 376 376 376 376
 334 334 334 226 226 226 226 292 292 223 91 91 91 91 91 250 250 250 125 125
 125 125 155 155 155 374 374 374 374 334 334 334 334 226 226 226 226 223 223 223
 91 91 91 91 250 250 250 250 125 125 125 125 155 155 155 374 374 374 374 334
 334 334 334 226 226 226 226 223 223 223 91 91 91 250 250 250 250 250 125 125
 125 125 179 179 179 374 374 374 193 193 193 334 334 383 383 226 226 223 223 223
 90 91 91 250 250 250 250 250 125 125 125 125 179 179 179 179 193 193 193 193
 193 193 193 383 383 383 332 332 332 332 90 90 386 250 250 250 12 12 125 162
 162 162 179 179 179 179 193 193 193 193 193 193 193 383 383 383 332 332 332 332
 90 90 386 386 12 12 12 12 162 162 162 162 179 179 179 179 193 193 193 193
 193 193 229 229 229 229 332 332 332 332 225 225 386 386 12 12 12 12 162 162
 162 162 179 179 311 311 311 193 193 193 193 193 229 229 229 229 332 332 332 225
 225 225 225 323 12 12 12 354 354 84 84 104 104 311 311 311 311 191 191 191
 191 191 229 229 229 229 297 297 297 297 225 225 225 323 323 12 12 354 84 84
 84 104 104 311 311 311 311 191 191 191 191 191 229 229 229 297 297 297 297 297
 225 225 225 225 323 354 354 354 84 84 84 84 202 202 311 311 311 191 191 191
 191 191 191 72 72 72 297 297 297 297 225 225 225 225 353 353 353 84 84 84
 84 202 202 202 202 311 311 191 191 191 191 191 72 72 72 72 297 297 297 297
 290 290 255 353 353 353 353 353 195 195 195 64 202 202 202 202 224 224 59 59
 59 59 59 72 72 72 72 297 290 290 290 290 255 353 353 353 353 353 195 195
 64 64 64 122 122 224 224 224 59 59 59 59 59 5 5 5 72 290 290 290
 290 290 255 139 353 353 353 353 195 195 64 64 64 122 122 122 224 224 59 59
 59 59 59 123 5 5 249 290 290 290 290 314 314 139 139 139 139 81 81 276
 64 64 122 122 122 122 182 182 182 59 59 59 59 123 123 217 217 217 290 290
 314 314 314 139 139 139 139 81 81 276 276 122 122 122 122 182 182 182 182 182
 59 59 257 257 257 217 217 217 217 314 314 314 314 95 373 373 373 81 81 276
 276 276 144 144 144 182 182 182 182 182 182 257 257 257 257 331 217 217 217 314
 314 314 95 95 95 373 81 81 81 276 276 276 58 58 58 182 182 182 182 182
 54 54 54 257 331 331 331 217 217 314 314 95 95 95 95 95 27 81 267 267
 267 58 58 58 58 58 182 182 182 54 54 54 54 331 331 331 331 331 217 314
 291 291 95 95 95 27 27 27 267 267 267 267 58 58 58 58 182 182 319 54
 54 54 54 331 331 331 331 331 217 291 291 291 291 291 95 27 27 27 267 267
 267 267 196 196 196 196 196 319 319 287 287 138 138 115 115 115 115 115 115 291
 291 291 291 291 53 53 53 27 267 267 267 304 258 258 258 258 319 319 319 287
 287 138 138 138 115 115 115 285 285 285 285 291 291 291 53 53 53 53 267 267
 304 304 258 258 258 258 319 319 319 287 138 138 138 138 115 115 150 285 285 285
 285 285 220 291 53 53 53 53 304 304 304 304 304 258 258 258 272 272 272 275
 275 138 138 138 138 150 150 285 285 285 285 220 220 220 53 53 53 186 186 304
 304 304 304 348 348 348 272 272 272 275 275 275 138 138 306 150 150 285 285 285
 220 220 220 220 220 53 186 186 186 186 186 304 348 348 348 348 272 272 272 275
 275 275 306 306 306 57 57 285 285 285 220 220 220 220 301 247 186 186 186 186
 186 348 348 348 348 348 272 272 272 275 275 306 306 306 306 57 57 57 285 220
 220 220 220 220 247 247 247 186 186 186 186 147 348 348 348 348 376 376 376 376
 85 85 306 306 306 57 292 292 292 220 220 220 220 91 247 247 247 186 186 186
 186 147 147 348 348 376 376 376 376 376 85 85 85 306 226 226 292 292 292 220
 220 220 91 91 91 247 247 186 125 125 125 147 155 155 155 376 376 376 376 334
 334 334 334 226 226 226 226 292 292 223 91 91 91 91 91 250 250 250 125 125
 125 125 155 155 155 374 374 374 334 334 334 334 334 226 226 226 226 226 223 223
 91 91 91 91 250 250 250 125 125 125 125 125 125 155 155 374 374 374 334 334
 334 334 334 226 226 226 226 226 223 223 332 91 91 250 250 250 250 125 125 125
 125 125 125 179 179 374 374 374 193 334 334 334 334 334 226 226 226 226 223 332
 332 90 250 250 250 250 250 125 125 125 125 125 179 179 179 179 193 193 193 193
 193 193 334 334 383 383 332 332 332 332 332 90 90 250 250 250 12 125 162 162
 162 162 179 179 179 179 193 193 193 193 193 193 193 383 383 332 332 332 332 332
 90 90 90 90 12 12 12 12 162 162 162 162 179 179 179 179 193 193 193 193
 193 193 193 229 229 332 332 332 332 332 90 90 90 12 12 12 12 12 162 162
 162 162 179 179 311 311 311 193 193 193 193 193 229 229 229 332 332 332 332 332
 225 225 225 225 12 12 12 12 84 84 84 84 84 311 311 311 311 191 191 191
 191 191 229 229 229 297 297 297 297 297 225 225 225 225 12 12 12 84 84 84
 84 84 84 311 311 311 311 191 191 191 191 191 191 72 72 72 297 297 297 297
 225 225 225 225 323 12 354 84 84 84 84 84 202 202 311 311 311 191 191 191
 191 191 72 72 72 72 297 297 297 297 297 225 225 225 353 353 353 84 84 84
 84 84 202 202 202 311 311 59 59 59 59 59 59 72 72 72 72 297 297 297
 290 290 225 353 353 353 353 195 195 195 195 195 202 202 202 202 224 59 59 59
 59 59 59 72 72 72 72 297 290 290 290 290 290 353 353 353 353 195 195 195
 195 195 64 122 122 122 59 59 59 59 59 59 59 72 72 72 72 290 290 290
 290 290 290 139 139 353 353 195 195 195 195 64 122 122 122 122 224 59 59 59
 59 59 59 79 72 72 72 290 290 290 290 290 314 139 139 139 139 81 81 195
 195 122 122 122 122 122 182 182 59 59 59 59 59 257 79 79 217 217 290 290
 314 314 314 139 139 139 139 81 81 81 81 122 122 122 122 182 182 182 182 182
 59 59 257 257 257 217 217 217 217 290 314 314 278 278 139 139 81 81 81 81
 81 122 122 122 122 182 182 182 182 182 182 257 257 257 257 331 217 217 217 217
 314 314 95 95 95 81 81 81 81 81 81 276 58 58 58 182 182 182 182 182
 54 54 54 331 331 331 331 217 217 217 314 95 95 95 95 81 81 81 81 267
 267 58 58 58 58 58 182 182 182 182 54 54 54 331 331 331 331 331 217 217
 291 291 95 95 95 27 27 27 267 267 267 267 58 58 58 58 182 319 319 319
 319 54 54 331 331 331 331 331 217 217 291 291 291 95 95 27 27 27 267 267
 267 267 196 196 196 196 319 319 319 287 319 138 138 331 331 331 331 331 115 291
 285 285 291 78 78 78 78 78 267 267 267 304 143 143 143 319 319 319 319 319
 319 138 138 138 115 115 150 285 285 285 285 285 291 291 53 53 53 53 267 267
 304 304 304 143 258 319 319 319 319 319 319 138 138 138 150 150 150 285 285 285
 285 285 220 220 53 53 53 186 186 304 304 304 304 258 258 96 272 272 272 275
 275 275 138 138 150 150 150 150 285 285 285 220 220 220 220 53 186 186 186 186
 186 304 304 348 348 96 272 272 272 275 275 275 2 2 150 150 150 150 285 285
 220 220 220 220 220 186 186 186 186 186 186 186 348 348 348 348 272 272 272 275
 275 275 2 306 306 150 150 150 285 285 220 22 220 220 220 186 186 186 186 186
 186 186 348 348 348 348 272 272 272 275 275 246 246 306 306 150 150 150 150 220
 220 220 220 220 220 247 186 186 186 186 186 186 348 348 348 348 376 376 376 275
 85 85 85 306 306 226 150 292 150 220 220 220 220 220 247 247 186 186 186 186
 186 186 186 348 348 376 376 376 376 334 85 85 85 306 226 226 292 292 292 220
 220 220 220 91 91 247 247 186 186 186 186 186 155 155 155 376 376 376 334 334
 334 85 334 334 226 226 226 292 292 220 220 91 91 91 250 250 250 125 125 125
 125 125 125 155 155 374 374 374 334 334 334 334 334 334 226 226 226 226 226 129
 129 91 91 91 250 250 250 125 125 125 125 125 125 155 155 374 374 374 334 334
 334 334 334 334 226 226 226 226 129 129 129 129 250 250 250 250 250 125 125 125
 125 125 125 179 119 119 374 374 334 334 334 334 334 334 41 41 41 41 332 332
 90 90 250 250 250 250 250 125 125 125 125 125 248 248 248 119 193 193 193 193
 334 334 334 334 41 41 41 332 332 332 90 90 90 90 250 250 250 125 162 162
 162 162 248 248 248 248 193 193 193 193 193 193 193 173 173 41 332 332 332 332
 90 90 90 90 12 12 12 162 162 162 162 162 162 248 248 248 193 193 193 193
 193 193 173 173 173 173 332 332 332 332 90 90 90 90 12 12 12 12 162 162
 162 162 162 248 311 311 311 193 193 193 193 193 173 173 173 173 332 332 332 90
 90 90 90 90 12 12 12 12 84 84 84 84 84 311 311 311 311 191 191 191
 191 191 173 173 173 173 297 297 297 297 225 225 225 225 12 12 12 84 84 84
 84 84 84 311 311 311 311 191 191 191 191 191 173 72 72 72 297 297 297 297
 225 225 225 199 199 203 84 84 84 84 84 84 202 202 311 311 311 191 191 191
 59 59 72 72 72 72 72 297 297 297 297 225 199 199 199 203 203 84 84 84
 84 84 202 202 368 368 368 59 59 59 59 59 59 72 72 72 72 297 297 297
 290 290 199 199 199 353 353 195 195 195 195 195 195 202 368 368 368 59 59 59
 59 59 59 72 72 72 72 72 297 290 290 290 199 353 353 353 353 195 195 195
 195 195 195 329 329 368 59 59 59 59 59 59 59 70 72 72 72 290 290 290
 290 290 290 241 241 241 241 195 195 195 195 195 122 122 122 122 59 59 59 59
 59 59 59 79 79 79 79 290 290 290 290 290 241 241 139 139 81 81 81 195
 195 195 122 122 122 122 182 59 59 59 59 59 79 79 79 79 79 290 290 290
 314 278 278 139 139 139 81 81 81 81 81 122 122 122 122 182 182 182 182 59
 59 59 79 79 79 79 217 217 217 290 314 278 278 278 81 81 81 81 81 81
 81 81 122 122 122 182 182 182 182 182 59 54 257 257 194 194 217 217 217 217
 278 278 278 278 81 81 81 81 81 81 81 81 58 58 58 182 182 182 182 182
 54 54 54 331 331 331 331 217 217 217 235 235 235 95 95 81 81 81 81 81
 81 81 58 58 58 58 182 182 182 319 54 54 54 331 331 331 331 331 217 217
 291 291 95 95 78 78 81 81 267 267 267 267 143 143 143 143 319 319 319 319
 319 319 54 331 331 331 331 331 217 217 291 291 291 95 78 78 78 78 267 267
 267 267 143 143 143 143 319 319 319 319 319 319 138 331 331 331 331 331 331 291
 285 285 78 78 78 78 78 78 267 267 267 143 143 143 143 143 319 319 319 319
 319 319 138 138 150 150 150 150 150 285 285 285 285 78 78 78 78 78 267 186
 304 143 143 143 96 96 319 319 319 319 319 2 2 2 150 150 150 150 150 285
 285 285 220 220 78 53 351 186 186 186 186 304 304 96 96 96 96 272 319 319
 2 2 2 2 150 150 150 150 150 285 285 220 220 220 220 351 351 186 186 186
 186 186 304 96 96 96 96 272 272 272 2 2 2 2 150 150 150 150 150 285
 220 220 220 220 220 186 186 186 186 186 186 186 186 96 96 96 96 272 272 272
 2 2 2 2 150 150 150 150 150 150 220 220 220 220 220 186 186 186 186 186
 186 186 186 336 336 336 336 272 272 246 246 246 246 246 150 150 150 150 150 220
 220 220 220 220 220 186 186 186 186 186 186 186 186 348 336 336 336 376 272 246
 246 246 246 246 246 150 150 150 150 220 220 220 220 220 220 186 186 186 186 186
 186 186 186 186 336 376 376 376 334 334 85 85 85 246 226 226 150 292 150 220
 220 220 220 91 204 204 204 186 186 186 186 186 186 186 155 119 376 376 334 334