# vtk DataFile Version 2.0
Data set from IO Version 6.4.197.9a0dee2
ASCII

DATASET RECTILINEAR_GRID
DIMENSIONS 31 31 31
X_COORDINATES 31 float
-4.116666 4.116666 12.349998 20.583330 28.816664 37.049999 45.283329 53.516663 61.749996 69.983322 78.216660 86.449989 94.683319 102.916656 111.149986 119.383324 127.616653 135.849991 144.083313 152.316650 160.549988 
168.783310 177.016647 185.249985 193.483307 201.716644 209.949982 218.183319 226.416641 234.649979 242.883316 
Y_COORDINATES 31 float
-4.116666 4.116666 12.349998 20.583330 28.816664 37.049999 45.283329 53.516663 61.749996 69.983322 78.216660 86.449989 94.683319 102.916656 111.149986 119.383324 127.616653 135.849991 144.083313 152.316650 160.549988 
168.783310 177.016647 185.249985 193.483307 201.716644 209.949982 218.183319 226.416641 234.649979 242.883316 
Z_COORDINATES 31 float
-4.116666 4.116666 12.349998 20.583330 28.816664 37.049999 45.283329 53.516663 61.749996 69.983322 78.216660 86.449989 94.683319 102.916656 111.149986 119.383324 127.616653 135.849991 144.083313 152.316650 160.549988 
168.783310 177.016647 185.249985 193.483307 201.716644 209.949982 218.183319 226.416641 234.649979 242.883316 
CELL_DATA 27000
SCALARS FeatureIds int 1
LOOKUP_TABLE default
 82 375 375 375 375 226 226 226 206 206 206 206 241 241 241 241 122 122 122 76
 199 199 199 199 199 199 199 199 199 209 82 82 375 375 375 375 375 375 206 206
 206 206 241 241 241 241 122 122 122 76 76 199 199 199 199 199 199 199 209 209
 82 82 82 375 375 375 375 375 206 206 206 206 241 241 241 122 122 122 122 76
 76 76 199 199 199 199 209 209 209 209 82 82 82 375 375 375 375 390 390 390
 390 390 390 241 122 122 122 122 122 76 76 76 68 209 209 209 209 209 209 209
 389 82 82 82 375 375 375 390 390 390 390 77 77 77 391 391 391 391 391 76
 76 68 68 68 209 209 209 209 209 209 389 389 389 389 389 286 390 390 390 390
 77 77 77 77 391 391 391 391 391 391 391 68 68 119 119 119 209 209 209 209
 389 389 389 389 286 286 390 390 390 390 77 77 77 164 164 164 391 391 391 54
 54 54 68 119 119 119 119 119 372 372 372 389 389 389 294 294 294 390 390 390
 77 77 349 164 164 164 164 391 54 54 54 54 119 119 119 119 119 119 372 372
 372 372 158 294 294 294 294 157 157 157 157 157 349 349 349 164 164 54 54 54
 54 54 119 119 119 119 119 119 119 372 158 158 158 158 294 294 294 157 157 157
 157 157 349 349 349 349 164 54 54 54 54 54 119 119 119 119 119 119 119 372
 158 158 158 158 294 294 294 157 157 157 157 157 349 349 349 349 56 56 56 54
 132 132 119 119 119 119 119 119 119 158 158 158 158 158 294 294 157 157 157 157
 157 157 349 349 349 56 56 56 56 56 121 132 132 119 119 119 119 119 119 158
 158 158 158 158 158 294 157 157 157 157 157 157 157 388 349 56 56 56 56 56
 121 132 132 119 119 119 119 119 158 158 158 158 158 158 123 334 334 157 157 157
 157 157 388 388 388 56 56 56 56 56 56 132 132 29 119 119 119 374 158 158
 262 262 123 123 123 123 334 334 208 208 157 157 388 388 388 56 56 56 56 56
 56 29 29 29 29 29 374 374 374 262 262 262 123 123 123 123 123 334 208 208
 208 157 388 388 388 56 56 56 171 171 140 140 29 29 29 29 374 374 374 262
 262 262 123 123 123 123 123 123 208 208 208 208 388 327 388 56 171 171 171 171
 140 140 140 29 29 29 374 374 262 262 262 262 123 123 123 123 323 323 179 179
 179 179 327 327 327 171 171 171 171 171 140 140 140 244 244 244 78 262 262 262
 262 262 262 123 323 323 323 323 179 179 179 179 327 327 327 327 171 171 145 145
 140 140 244 244 244 244 78 78 262 262 262 262 262 123 323 323 323 323 179 179
 179 179 327 327 327 327 145 145 145 145 145 244 244 244 244 244 78 78 78 262
 212 212 239 239 239 239 323 323 179 179 179 179 327 327 327 327 147 145 145 145
 145 244 244 244 244 244 78 78 78 212 212 212 239 239 239 239 239 323 179 179
 218 218 327 16 327 147 147 147 145 145 145 244 244 244 244 244 78 78 212 212
 212 212 303 303 303 303 71 71 218 340 218 218 218 16 147 147 147 147 145 145
 145 244 244 183 183 183 237 237 237 212 212 156 303 303 303 303 303 218 218 340
 218 218 275 275 147 147 147 147 79 79 79 79 183 183 183 183 237 237 237 237
 59 59 303 303 303 303 303 218 218 218 218 218 275 275 275 275 275 79 79 79
 79 79 183 183 183 183 237 237 237 59 59 59 282 303 303 303 303 218 218 218
 218 275 275 275 275 275 5 5 79 79 79 79 79 183 183 183 237 237 59 59
 59 282 282 282 226 226 226 226 218 218 254 254 275 275 275 275 5 5 5 79
 79 79 384 384 384 384 384 384 59 59 282 282 282 226 226 226 226 226 226 254
 254 254 254 275 275 5 5 5 5 79 79 199 199 384 384 384 384 384 384 59
 282 282 282 226 226 226 226 226 226 226 254 254 254 275 275 5 5 5 5 5
 5 199 199 199 199 199 199 199 199 59 282 282 282 226 226 226 226 226 226 206
 206 254 254 275 275 5 5 5 5 5 199 199 199 199 199 199 199 199 199 199
 41 375 375 375 375 375 375 375 206 206 206 206 241 241 241 241 122 122 122 122
 199 199 199 199 199 199 199 199 209 209 209 82 375 375 375 375 375 375 206 206
 206 206 241 241 241 241 122 122 122 122 76 199 199 199 199 199 209 209 209 209
 209 82 82 375 375 375 375 375 206 206 206 206 241 241 241 122 122 122 122 122
 76 76 204 199 209 209 209 209 209 209 209 82 82 375 375 375 375 390 390 390
 390 390 241 241 241 122 122 122 122 122 68 68 68 209 209 209 209 209 209 209
 209 82 172 172 172 286 286 390 390 390 390 77 77 77 391 391 391 391 391 391
 68 68 68 68 209 209 209 209 209 209 209 389 172 172 286 286 286 390 390 390
 390 77 77 77 391 391 391 391 391 391 68 68 68 68 209 209 209 209 209 209
 372 389 389 286 286 286 286 390 390 390 390 77 159 164 164 164 391 391 391 391
 68 68 68 119 119 119 119 209 372 372 372 372 389 67 286 286 286 157 390 390
 390 159 349 164 164 164 164 391 391 391 54 68 119 119 119 119 119 119 372 372
 372 372 158 294 294 294 294 157 157 157 157 157 349 349 349 164 164 54 54 54
 54 185 119 119 119 119 119 119 372 372 158 158 158 294 294 294 294 157 157 157
 157 157 349 349 349 349 164 56 54 54 185 185 119 119 119 119 119 119 119 372
 158 158 158 158 294 294 294 157 157 157 157 157 349 349 349 349 56 56 56 121
 121 121 119 119 119 119 119 119 119 158 158 158 158 158 294 294 294 157 157 157
 157 157 349 349 349 56 56 56 56 121 121 121 119 119 119 119 119 119 119 158
 158 158 158 158 294 294 157 157 157 157 157 157 157 349 349 56 56 56 56 56
 121 121 119 119 119 119 119 119 119 158 158 158 158 123 123 123 123 157 157 157
 157 157 157 388 56 56 56 56 56 56 56 121 119 119 119 119 119 119 374 158
 262 262 123 123 123 123 123 123 157 157 157 157 157 388 56 56 56 56 56 56
 56 140 29 29 29 374 374 374 374 262 262 262 123 123 123 123 123 123 208 208
 208 157 157 388 56 56 56 56 56 56 140 140 140 29 29 374 374 374 374 262
 262 262 123 123 123 123 123 123 208 208 208 208 327 327 56 56 56 56 56 140
 140 140 140 140 29 374 374 374 374 262 262 262 123 123 123 123 323 323 323 179
 179 179 327 327 327 171 171 171 171 140 140 140 140 140 244 244 78 78 262 262
 262 262 262 123 323 323 323 323 179 179 179 179 327 327 327 327 63 145 145 145
 140 140 140 244 244 78 78 78 78 262 262 262 99 323 323 323 323 323 179 179
 179 179 327 327 327 327 145 145 145 145 145 140 244 244 244 78 78 78 78 78
 212 99 99 239 239 323 323 323 179 179 179 179 327 327 327 327 147 145 145 145
 145 244 244 244 244 78 78 78 78 78 212 212 239 239 239 239 323 323 179 179
 179 179 327 327 147 147 147 147 145 145 145 244 244 244 244 183 78 78 78 212
 212 156 99 303 303 303 303 303 340 340 340 218 147 147 147 147 147 147 145 145
 105 105 183 183 183 183 237 237 237 237 156 156 156 303 303 303 303 303 340 340
 340 218 275 147 147 147 147 147 147 79 105 105 183 183 183 183 237 237 237 237
 156 156 156 303 303 303 303 303 340 340 340 218 275 275 147 147 147 147 79 79
 79 183 183 183 183 183 237 237 237 237 59 156 282 303 303 303 303 218 86 86
 86 275 275 275 275 147 147 5 5 79 79 79 183 183 183 183 237 237 237 237
 282 282 282 282 282 226 226 86 86 86 86 254 275 275 275 5 5 5 5 5
 79 384 384 384 384 384 384 384 237 59 282 282 282 282 226 226 226 226 86 86
 86 254 254 275 275 5 5 5 5 5 5 384 384 384 384 384 384 384 384 91
 282 282 282 282 226 226 226 226 86 86 86 254 254 275 5 5 5 5 5 5
 5 384 384 384 384 384 384 384 384 41 282 282 282 282 226 226 226 226 206 206
 206 206 315 315 5 5 5 5 5 5 5 384 384 384 384 384 384 199 199 41
 41 369 375 375 375 375 375 375 206 206 206 315 315 315 315 315 315 122 118 118
 118 227 384 384 384 384 209 209 209 209 209 209 375 375 375 375 375 375 206 206
 206 315 315 315 315 315 315 122 122 118 118 204 204 204 209 209 209 209 209 209
 209 209 375 375 375 375 375 375 206 206 206 315 315 315 315 315 122 122 122 122
 68 204 204 204 209 209 209 209 209 209 209 209 172 172 172 172 286 286 206 206
 206 315 315 315 270 122 122 122 122 122 68 68 204 204 209 209 209 209 209 209
 209 209 172 172 172 286 286 286 390 390 390 77 77 270 270 270 391 391 391 68
 68 68 68 68 209 209 209 209 209 209 209 209 172 172 286 286 286 286 390 390
 390 77 159 159 270 391 391 391 391 68 68 68 68 68 209 209 209 209 209 209
 372 372 172 286 286 286 286 286 390 390 390 159 159 159 164 164 391 391 391 391
 68 68 68 68 119 119 119 209 209 372 372 372 67 67 286 286 286 286 157 157
 159 159 159 159 164 164 164 391 391 391 68 68 68 119 119 119 119 119 372 372
 372 372 67 67 67 294 294 157 157 157 157 159 159 349 349 164 164 391 391 185
 185 185 185 119 119 119 119 119 119 372 372 372 67 67 294 294 294 157 157 157
 157 157 349 349 349 349 164 56 56 185 185 185 185 119 119 119 119 119 119 372
 158 158 158 135 294 294 294 157 157 157 157 157 349 349 349 349 56 56 56 56
 185 185 185 119 119 119 119 119 119 119 158 158 135 135 135 294 157 157 157 157
 157 157 349 349 349 56 56 56 56 56 121 121 119 119 119 119 119 119 119 158
 225 158 135 135 135 135 157 157 157 157 157 157 157 349 349 56 56 56 56 56
 121 121 121 119 119 119 119 119 225 225 225 135 135 135 135 135 157 157 157 157
 157 157 157 349 56 56 56 56 56 56 56 121 121 230 230 230 230 225 225 225
 225 225 135 135 123 123 123 123 157 157 157 157 157 56 56 56 56 56 56 56
 56 140 140 230 230 230 374 374 225 225 262 96 135 123 123 123 123 123 157 208
 157 157 157 56 56 56 56 56 56 56 140 140 140 140 230 230 374 374 374 262
 262 96 123 123 123 123 123 123 208 179 179 179 327 327 56 56 56 56 56 140
 140 140 140 140 140 374 374 374 374 262 262 262 123 123 123 323 323 323 323 179
 179 179 327 327 327 63 63 63 140 140 140 140 140 140 244 78 78 78 78 78
 262 262 323 323 323 323 323 323 179 179 179 179 327 327 327 63 63 63 145 145
 140 140 140 140 244 78 78 78 78 78 317 99 99 323 323 323 323 323 179 179
 179 179 327 327 327 63 63 63 145 145 145 140 140 244 244 78 78 78 78 78
 99 99 99 99 323 323 323 323 179 179 179 179 327 327 327 63 63 63 145 145
 145 244 244 244 244 78 78 78 78 78 99 99 99 99 323 323 323 323 179 179
 179 179 147 147 147 147 147 147 145 145 145 105 105 244 183 183 78 78 78 212
 99 99 99 303 303 303 303 303 340 340 340 340 147 147 147 147 147 147 147 58
 105 105 105 183 183 183 237 237 237 237 156 156 156 303 303 303 303 303 340 340
 340 340 147 147 147 147 147 167 167 58 105 105 105 183 183 183 237 237 237 237
 156 156 156 303 303 303 303 303 340 340 340 340 147 147 147 147 147 147 58 58
 58 105 105 183 183 183 237 237 237 237 156 156 282 282 303 303 303 86 86 86
 86 86 147 147 147 147 147 147 58 58 58 58 58 183 183 183 237 237 237 91
 91 282 282 282 282 282 86 86 86 86 86 86 275 275 275 5 5 5 5 58
 58 58 384 384 384 384 384 384 91 91 91 282 282 282 282 226 226 86 86 86
 86 86 86 320 5 5 5 5 5 5 58 384 384 384 384 384 384 384 91 91
 282 282 282 282 282 226 226 86 86 86 86 86 86 315 320 5 5 5 5 5
 227 384 384 384 384 384 384 384 41 41 282 282 282 282 375 226 226 86 86 86
 86 86 315 315 315 5 5 5 5 5 227 384 384 384 384 384 384 384 41 41
 41 369 369 375 375 375 375 375 206 206 206 315 315 315 315 315 315 118 118 118
 118 227 227 204 384 209 209 209 41 41 41 369 369 375 375 375 375 375 206 206
 206 315 315 315 315 315 315 118 118 118 118 204 204 204 204 209 209 209 209 209
 209 114 172 375 375 375 375 375 206 206 206 315 315 315 315 315 122 122 118 118
 118 204 204 204 204 209 209 209 209 209 209 114 172 172 172 172 286 286 206 206
 206 315 315 315 270 270 270 122 122 68 68 68 204 204 204 209 209 209 209 209
 209 114 172 172 172 286 286 286 390 390 380 159 315 270 270 270 270 391 391 68
 68 68 68 204 209 209 209 209 209 209 209 114 172 172 286 286 286 286 286 390
 159 159 159 159 270 270 270 391 391 68 68 68 68 68 209 209 209 209 209 209
 372 67 67 67 286 286 286 286 286 380 159 159 159 159 270 270 270 391 391 68
 68 68 68 68 119 119 209 209 209 209 309 67 67 67 67 286 286 286 157 157
 159 159 159 159 159 270 270 391 391 68 68 68 68 119 119 119 119 119 309 309
 309 309 67 67 67 67 294 157 157 157 157 159 159 159 159 233 164 391 391 185
 185 185 185 119 119 119 119 119 309 309 309 309 67 67 67 294 294 157 157 157
 157 157 159 349 349 233 233 56 185 185 185 185 185 119 119 119 119 119 309 309
 309 309 135 135 135 294 157 157 157 157 157 157 349 349 349 349 56 56 56 185
 185 185 185 119 119 119 119 119 309 309 309 135 135 135 135 135 157 157 157 157
 157 157 344 344 349 56 56 56 56 56 185 185 185 119 119 119 119 119 309 309
 225 135 135 135 135 135 157 157 157 157 157 157 157 344 344 56 56 56 56 56
 121 121 266 230 230 230 119 119 225 225 225 135 135 135 135 135 135 157 157 157
 157 157 157 344 56 56 56 56 56 56 56 266 230 230 230 230 230 230 225 225
 225 135 135 135 135 135 123 123 157 157 157 157 157 56 56 56 56 56 56 56
 56 266 266 230 230 230 230 374 225 225 96 96 96 96 123 123 123 123 157 208
 157 157 195 195 56 56 56 56 56 56 140 140 140 140 230 230 374 374 374 225
 96 96 96 123 123 123 123 123 179 179 385 385 385 195 63 63 63 63 56 140
 140 140 140 140 370 370 374 374 374 317 317 96 96 123 123 323 323 323 179 179
 385 385 385 385 63 63 63 63 274 140 140 140 140 140 370 370 78 78 317 317
 317 317 317 323 323 323 323 235 179 179 385 385 385 385 63 63 63 63 274 274
 140 140 140 140 370 370 78 78 317 317 317 317 99 323 323 323 235 235 235 179
 179 385 385 327 63 63 63 63 274 274 274 140 140 244 244 78 78 78 317 317
 99 99 99 99 323 323 323 235 179 179 179 385 385 147 147 63 63 63 274 274
 274 274 12 12 12 78 78 78 317 317 99 99 99 99 99 323 323 323 179 179
 179 359 359 147 147 147 147 147 147 274 274 105 105 12 12 183 78 78 317 317
 99 99 99 99 303 303 303 358 358 340 340 359 359 147 147 147 147 147 147 58
 105 105 105 105 183 183 237 237 237 317 156 156 156 156 303 303 303 358 358 340
 340 322 322 322 147 147 147 167 167 58 105 105 105 183 183 183 237 237 237 156
 156 156 156 156 303 303 303 358 358 358 358 322 322 322 147 147 147 147 58 58
 58 105 105 183 183 183 183 237 237 156 156 156 156 282 282 303 358 358 86 86
 86 86 259 259 147 147 147 58 58 58 58 58 58 183 183 183 183 237 91 156
 91 282 282 282 282 282 86 86 86 86 86 86 259 259 320 320 58 58 58 58
 58 58 384 384 384 384 384 384 91 91 91 282 282 282 282 282 86 86 86 86
 86 86 320 320 320 320 5 5 58 58 58 58 384 384 384 384 384 384 91 91
 41 282 282 282 282 313 313 86 86 86 86 86 320 320 320 320 5 5 5 58
 227 227 384 384 384 384 384 41 41 41 41 369 282 282 313 313 313 86 86 86
 86 86 315 315 315 320 5 5 5 227 227 227 227 384 384 384 384 41 41 41
 369 369 369 369 313 313 313 124 124 124 124 315 315 315 315 315 315 118 118 118
 118 227 227 204 204 209 209 209 41 41 369 369 369 369 313 313 313 124 124 124
 124 102 315 315 315 315 136 118 118 118 118 118 204 204 204 209 209 209 209 209
 114 114 114 172 172 172 124 124 124 124 124 102 315 315 315 136 136 118 118 118
 118 204 204 204 204 209 209 209 209 209 114 114 114 172 172 172 286 286 380 380
 380 102 102 270 136 136 136 270 141 141 68 204 204 204 198 198 209 209 209 209
 114 114 114 172 172 286 286 286 380 380 380 380 270 270 270 270 270 270 270 68
 68 68 68 204 198 198 209 209 209 209 114 114 114 172 286 286 286 286 380 380
 380 159 159 270 270 270 270 270 270 68 68 68 68 68 252 252 252 209 209 209
 114 67 67 67 67 286 286 286 380 380 380 159 159 159 270 270 270 270 270 68
 68 68 68 68 252 252 252 209 209 209 309 67 67 67 67 67 286 286 380 380
 380 159 159 159 159 270 270 270 270 68 68 68 68 68 119 119 119 309 309 309
 309 309 67 67 67 67 286 364 364 364 364 159 159 159 159 233 233 270 270 185
 185 185 185 394 119 119 119 309 309 309 309 309 67 67 67 67 67 157 364 364
 364 159 159 159 233 233 233 233 185 185 185 185 394 394 394 119 119 309 309 309
 309 309 135 135 135 135 157 157 157 364 364 157 344 344 344 233 233 233 56 185
 185 185 394 394 394 119 119 309 309 309 309 309 135 135 135 135 135 157 157 157
 157 157 344 344 344 233 56 56 56 56 185 185 394 394 394 119 119 309 309 309
 225 135 135 135 135 135 135 157 157 157 157 157 344 344 344 56 56 56 56 56
 266 266 266 394 230 230 230 225 225 225 225 135 135 135 135 135 135 175 175 175
 157 157 344 344 344 56 56 56 56 56 266 266 266 230 230 230 230 230 225 225
 96 96 96 135 135 135 300 175 175 175 157 157 195 195 195 56 56 56 56 56
 266 266 266 266 230 230 230 337 337 225 96 96 96 96 135 300 300 300 175 175
 385 385 195 195 195 195 56 56 56 56 266 266 266 266 230 370 337 337 337 225
 96 96 96 96 300 300 300 300 385 385 385 385 385 195 195 63 63 63 63 274
 140 140 140 370 370 370 370 337 337 337 317 96 96 96 2 2 2 235 385 385
 385 385 385 385 63 63 63 63 274 274 274 134 134 134 370 370 370 317 317 317
 317 317 317 2 2 2 2 235 235 385 385 385 385 385 63 63 63 63 274 274
 274 134 134 134 370 370 370 317 317 317 317 317 317 2 2 2 2 235 235 385
 385 385 385 385 63 63 63 63 274 274 274 274 134 134 370 370 78 317 317 317
 317 99 99 99 2 2 2 235 235 385 385 385 385 359 63 63 63 63 274 274
 274 274 12 12 12 12 317 317 317 317 99 99 99 99 2 2 323 235 358 358
 385 359 359 359 147 147 147 50 274 274 274 274 12 12 12 12 94 317 317 317
 188 188 188 188 153 153 358 358 358 358 358 359 359 359 147 147 147 147 58 58
 58 105 12 12 12 183 94 94 94 188 188 188 188 188 153 153 358 358 358 358
 358 359 359 359 147 147 147 167 58 58 58 105 105 183 183 94 94 94 94 188
 156 156 156 156 153 153 358 358 358 358 358 259 259 259 147 147 147 58 58 58
 58 58 58 183 183 183 94 94 94 188 156 156 156 282 282 153 358 358 358 86
 86 259 259 259 259 147 147 58 58 58 58 58 58 183 183 373 94 94 94 91
 91 282 282 282 282 9 9 86 86 86 86 86 259 259 320 320 58 58 58 58
 58 58 58 384 373 373 373 373 91 91 41 282 282 282 282 9 9 86 86 86
 86 86 320 320 320 320 320 58 58 58 58 58 58 384 373 373 373 41 41 91
 41 369 282 282 313 313 313 86 86 86 86 86 320 320 320 320 320 58 58 58
 227 227 227 384 373 373 373 41 41 41 369 369 369 313 313 313 313 313 86 86
 86 86 320 320 320 320 320 58 58 227 227 227 227 384 384 384 384 41 41 41
 369 369 369 313 313 313 313 124 124 124 124 102 102 102 315 315 118 118 118 118
 118 227 227 227 204 209 209 209 41 41 369 369 369 313 313 313 124 124 124 124
 124 102 102 102 315 136 136 118 118 118 118 118 204 204 204 209 209 209 209 209
 114 114 114 114 172 313 124 124 124 124 124 102 102 102 136 136 136 118 118 118
 118 118 204 204 198 198 198 209 209 209 114 114 114 114 172 172 286 380 380 380
 380 102 102 102 136 136 136 136 141 141 141 204 204 204 198 198 198 209 209 209
 114 114 114 114 172 286 286 380 380 380 380 380 270 270 270 270 270 270 141 141
 180 180 180 204 198 198 198 209 209 114 114 114 114 67 286 286 286 380 380 380
 380 380 159 270 270 270 270 270 270 68 180 180 180 252 252 252 252 209 209 197
 197 114 67 67 67 67 286 380 380 380 380 159 159 159 270 270 270 270 270 270
 180 180 180 252 252 252 252 209 197 197 197 197 67 67 67 67 67 380 380 380
 380 159 159 159 270 270 270 270 270 270 180 68 68 394 252 252 252 30 309 197
 309 309 67 67 67 67 67 35 364 364 364 159 159 159 233 233 233 233 233 185
 185 394 394 394 394 30 30 30 309 309 309 309 67 67 67 67 35 35 364 364
 364 159 159 159 233 233 233 233 233 185 185 394 394 394 394 30 30 30 309 309
 309 309 135 135 135 135 35 35 364 364 364 344 344 344 344 233 233 233 233 185
 185 394 394 394 394 30 30 30 309 309 309 309 135 135 135 135 135 175 157 157
 157 344 344 344 344 233 233 233 56 266 266 394 394 394 394 396 30 30 309 309
 225 135 135 135 135 135 135 175 175 175 157 344 344 344 344 233 56 56 56 266
 266 266 266 394 396 396 396 30 309 309 96 96 135 135 135 135 300 175 175 175
 175 344 344 344 344 56 56 348 56 266 266 266 266 396 396 396 396 396 225 225
 96 96 96 96 135 300 300 175 175 175 175 195 195 195 195 195 348 348 348 266
 266 266 266 266 396 396 337 337 337 225 96 96 96 96 300 300 300 300 175 175
 385 195 195 195 195 195 348 348 348 348 266 266 266 266 370 370 337 337 337 96
 96 96 96 96 300 300 300 300 300 385 385 385 195 195 195 195 63 348 348 274
 274 280 134 370 370 370 370 337 337 96 317 96 96 96 300 300 300 300 385 385
 385 385 385 195 195 63 63 63 274 274 274 280 134 370 370 370 370 370 317 317
 317 317 317 2 2 2 2 235 385 385 385 385 385 385 63 63 63 63 274 274
 274 134 134 134 370 370 370 317 317 317 317 317 317 2 2 2 2 235 235 385
 385 385 385 385 63 63 63 63 274 274 274 274 134 134 370 370 370 317 317 317
 317 317 99 99 2 2 2 235 358 385 385 385 385 359 63 63 50 50 274 274
 274 274 12 12 12 387 387 317 317 317 317 99 188 188 89 89 89 358 358 358
 385 359 359 359 359 50 50 50 50 274 274 274 12 12 12 387 387 387 317 317
 188 188 188 188 89 153 89 358 358 358 358 359 359 359 359 147 50 50 50 58
 58 58 12 12 12 94 94 94 94 188 188 188 188 188 153 153 153 358 358 358
 358 359 359 359 359 147 147 58 58 58 58 58 58 12 12 94 94 94 94 188
 188 188 188 188 89 153 358 358 358 358 358 259 259 259 259 147 147 58 58 58
 58 58 58 58 183 94 94 94 94 188 188 188 188 188 293 293 358 358 358 358
 36 259 259 139 259 259 58 58 58 58 58 58 58 58 373 373 94 94 94 188
 386 282 282 293 293 9 293 358 36 36 36 259 259 259 320 320 58 58 58 58
 58 58 58 58 373 373 373 94 386 386 386 369 282 293 9 9 9 36 36 36
 36 36 320 320 320 320 320 58 58 58 58 58 58 384 373 373 373 41 386 386
 369 369 369 313 313 313 313 313 36 36 36 36 320 320 320 320 320 58 58 58
 227 227 227 227 373 373 373 41 41 41 369 369 369 313 313 313 313 313 124 124
 124 124 320 320 320 320 320 58 118 118 227 227 227 227 373 373 373 41 41 41
 369 369 369 313 313 313 313 124 124 124 124 102 102 102 98 98 98 118 118 118
 118 227 227 227 204 209 209 209 41 41 369 369 369 313 313 313 124 124 124 124
 124 102 102 102 136 136 136 118 118 118 118 118 204 204 204 209 209 209 209 209
 114 114 114 114 127 313 124 124 124 124 124 102 102 102 136 136 136 118 118 118
 118 118 204 204 198 198 198 209 209 209 114 114 114 114 127 127 127 380 380 125
 380 102 102 102 136 136 136 270 141 141 141 141 204 198 198 198 198 209 209 114
 114 114 114 114 127 127 127 380 380 380 380 380 380 270 270 270 270 270 379 379
 180 180 180 204 252 252 198 209 209 114 114 114 114 114 127 127 127 380 380 380
 380 380 380 270 270 270 270 270 379 379 180 180 180 252 252 252 252 209 197 197
 197 197 114 67 127 127 127 380 380 380 380 380 159 270 270 270 270 270 379 379
 180 180 180 180 252 252 252 209 197 197 197 197 67 67 67 67 127 380 380 380
 380 380 159 159 270 270 270 270 379 379 180 180 180 394 252 252 30 30 197 197
 309 309 67 67 67 67 35 35 364 364 364 159 159 159 233 233 233 270 379 379
 394 394 394 394 394 30 30 30 309 309 309 309 67 67 67 67 35 35 364 364
 364 364 159 344 233 233 233 233 233 394 394 394 394 394 394 30 30 30 309 309
 309 309 309 135 135 35 35 35 364 364 364 364 344 344 344 233 233 233 31 31
 394 394 394 394 394 30 30 30 309 309 309 232 232 135 135 135 35 35 364 364
 364 344 344 344 344 233 233 31 31 31 266 394 394 394 396 396 30 30 309 309
 232 232 232 135 135 135 175 175 175 175 175 344 344 344 344 344 31 31 31 31
 266 266 266 396 396 396 396 396 214 232 232 232 232 135 135 300 300 175 175 175
 175 69 344 344 344 195 348 348 31 31 266 266 266 396 396 396 396 396 214 232
 232 96 96 96 300 300 300 300 175 175 175 195 195 195 195 195 348 348 348 348
 266 266 266 396 396 396 396 337 214 214 96 96 96 96 300 300 300 300 175 175
 69 195 195 195 195 195 348 348 348 348 266 266 266 396 396 396 337 337 337 214
 96 96 96 96 300 300 300 300 300 162 162 162 195 195 195 195 348 348 348 348
 280 280 280 280 370 370 370 337 337 96 317 96 96 300 300 300 300 300 300 162
 162 162 162 195 195 195 63 348 274 274 280 280 280 370 370 370 370 370 317 317
 317 317 317 345 345 2 2 300 300 385 162 162 162 195 195 63 63 274 274 274
 274 280 280 134 370 370 370 317 317 317 317 317 317 345 2 2 2 2 235 385
 385 385 385 195 63 63 63 274 274 274 274 274 134 134 370 370 387 317 317 317
 317 317 99 345 2 2 2 2 358 385 385 385 385 359 359 50 50 50 274 274
 274 274 12 12 12 387 387 387 317 317 317 188 188 89 89 89 89 358 358 358
 359 359 359 359 359 50 50 50 50 274 274 274 12 12 12 387 387 387 387 317
 188 188 188 89 89 89 89 358 358 358 358 359 359 359 359 50 50 50 50 58
 58 58 12 12 12 387 387 387 387 188 188 188 188 89 89 89 89 358 358 358
 358 359 359 359 359 147 50 50 58 58 58 58 58 12 12 94 94 94 94 188
 188 188 188 89 89 89 89 358 358 358 358 259 259 259 259 259 58 58 58 58
 58 58 58 58 12 94 94 94 94 188 188 188 188 89 89 89 358 358 358 358
 358 259 259 259 259 259 58 58 58 58 58 58 58 58 373 373 94 94 94 188
 277 277 277 293 293 293 293 293 36 36 36 259 259 259 320 320 58 58 58 58
 58 58 58 58 373 373 373 373 386 386 277 277 277 293 293 293 293 293 36 36
 36 36 320 320 320 320 320 58 58 58 58 58 58 58 373 373 373 373 386 386
 369 369 369 293 293 293 293 293 36 36 36 36 320 320 320 320 98 58 58 58
 227 227 227 227 373 373 373 41 41 386 369 369 369 313 313 313 313 124 124 124
 124 124 124 320 98 98 98 58 118 118 227 227 227 227 373 373 373 41 41 41
 350 277 277 313 313 313 124 124 124 124 124 124 102 102 98 98 98 371 371 118
 118 227 227 227 227 209 209 350 350 350 350 350 277 290 313 313 124 124 124 124
 124 102 102 102 352 371 371 371 371 118 118 118 227 227 204 209 209 350 350 350
 350 350 114 114 127 124 124 124 124 125 125 102 102 352 352 352 371 371 371 118
 118 397 397 204 198 198 198 209 350 350 114 114 114 114 127 127 127 380 125 125
 125 380 352 352 352 270 270 270 371 141 141 141 397 198 198 198 198 57 57 114
 114 114 114 127 127 127 127 380 380 380 380 380 352 352 270 270 270 270 379 379
 379 180 180 204 252 57 57 57 57 57 197 170 114 127 127 127 127 380 380 380
 380 380 380 270 270 270 270 270 379 379 379 180 180 252 252 57 57 57 57 197
 197 197 170 127 127 127 127 380 380 380 380 380 380 270 270 270 270 270 379 379
 379 180 180 180 252 57 57 57 57 197 197 197 170 127 127 127 127 380 380 380
 380 380 380 270 270 270 270 270 379 379 379 258 394 394 252 30 30 30 30 197
 197 197 67 67 67 67 35 35 35 380 380 380 159 159 233 233 233 270 18 18
 18 394 394 394 394 30 30 30 30 309 309 309 67 67 67 35 35 35 35 364
 364 364 159 344 233 233 233 233 18 18 18 394 394 394 394 30 30 30 30 309
 309 309 232 232 110 35 35 35 35 364 364 364 344 344 344 233 233 233 31 31
 18 394 394 394 394 30 30 30 30 309 232 232 232 232 92 92 35 69 69 69
 69 69 344 344 344 233 233 31 31 31 202 202 394 394 396 396 30 30 30 232
 232 232 232 135 92 92 92 69 69 69 69 69 344 344 344 344 31 31 31 31
 202 202 202 396 396 396 396 214 214 232 232 232 232 232 92 92 92 69 69 69
 69 69 276 276 276 348 348 31 31 31 202 202 202 396 396 396 396 214 214 232
 232 232 232 232 300 300 300 300 69 69 69 276 276 195 195 195 348 348 348 31
 202 202 202 396 396 396 396 214 214 214 214 232 232 300 300 300 300 300 69 69
 69 276 195 195 195 195 348 348 348 348 202 202 202 396 396 396 396 214 214 214
 214 96 96 300 300 300 300 300 69 69 162 162 195 195 195 195 348 348 348 348
 280 280 280 280 370 370 370 337 337 214 317 96 345 345 345 300 300 300 300 162
 162 162 162 195 195 361 361 348 348 348 280 280 280 280 370 370 370 201 317 317
 317 317 345 345 345 345 345 345 345 162 162 162 162 162 361 361 361 274 274 274
 280 280 280 280 370 370 370 317 317 317 317 317 345 345 345 345 345 345 345 162
 162 162 162 162 356 361 63 274 274 274 274 280 280 280 64 387 387 387 317 317
 317 317 345 345 345 345 345 345 345 162 162 356 356 356 356 50 50 50 50 274
 274 274 12 12 12 387 387 387 387 317 317 188 345 345 89 89 89 89 358 358
 358 356 356 356 356 50 50 50 50 274 274 8 12 12 12 387 387 387 387 387
 188 188 184 89 89 89 89 89 358 358 358 359 359 359 359 50 50 50 50 58
 58 58 12 12 12 387 387 387 387 387 188 188 184 89 89 89 89 358 358 358
 358 359 359 359 359 50 50 50 58 58 58 58 58 224 12 387 387 387 387 387
 188 188 184 89 89 89 89 358 358 358 43 316 316 316 316 316 58 58 58 58
 58 58 58 58 333 94 94 94 94 188 277 277 277 89 89 89 89 358 358 358
 43 316 316 316 316 316 58 58 58 58 58 58 58 333 333 373 304 304 304 277
 277 277 277 293 293 293 293 293 36 36 36 316 316 316 316 320 58 58 58 58
 58 58 58 333 333 373 373 304 277 277 277 277 277 293 293 293 293 293 36 36
 36 36 316 316 320 320 320 58 58 58 58 58 333 333 333 373 373 373 277 277
 277 277 277 277 293 293 293 293 124 124 124 124 316 320 98 98 98 58 58 58
 227 227 333 333 333 373 373 277 277 277 277 277 277 277 293 293 293 124 124 124
 124 124 124 98 98 98 98 98 58 118 227 227 227 227 333 373 373 41 41 277
 350 350 277 290 290 313 124 124 124 124 124 124 102 98 98 98 371 371 371 371
 397 397 397 397 397 350 350 350 350 350 350 350 350 290 290 290 124 124 124 124
 124 124 352 352 352 371 371 371 371 371 397 397 397 397 397 350 350 350 350 350
 350 350 350 290 290 290 314 314 124 125 125 352 352 352 352 352 371 371 371 371
 397 397 397 397 198 57 57 350 350 350 170 170 170 170 127 127 314 314 380 125
 380 352 352 352 352 352 371 371 371 371 397 397 397 397 57 57 57 57 57 57
 170 170 170 170 127 127 127 380 380 380 380 380 352 352 352 352 270 270 379 379
 379 379 180 268 57 57 57 57 57 57 170 170 170 170 127 127 127 380 380 380
 380 380 352 352 352 270 270 270 379 379 379 379 258 268 57 57 57 57 57 57
 170 170 170 170 127 127 127 380 380 380 380 380 380 270 270 270 270 270 379 379
 379 258 258 268 57 57 57 57 57 57 170 170 170 170 127 127 127 380 380 380
 380 380 380 270 270 270 270 270 379 379 258 258 258 258 268 57 57 30 30 197
 197 170 170 110 110 110 35 35 35 380 380 380 380 149 149 149 149 149 18 18
 18 258 258 258 30 30 30 30 30 30 309 309 170 110 110 110 35 35 35 380
 380 380 7 149 149 149 149 149 18 18 18 258 394 394 30 30 30 30 30 30
 309 232 232 110 110 110 35 35 35 69 69 69 7 344 149 149 149 149 18 18
 18 18 394 205 205 30 30 30 30 30 232 232 232 232 110 110 35 69 69 69