# vtk DataFile Version 2.0
Data set from IO Version 6.4.197.9a0dee2
ASCII

DATASET RECTILINEAR_GRID
DIMENSIONS 31 31 31
X_COORDINATES 31 float
-3.250000 3.250000 9.750000 16.250000 22.750000 29.250000 35.750000 42.250000 48.750000 55.250000 61.750000 68.250000 74.750000 81.250000 87.750000 94.250000 100.750000 107.250000 113.750000 120.250000 126.750000 
133.250000 139.750000 146.250000 152.750000 159.250000 165.750000 172.250000 178.750000 185.250000 191.750000 
Y_COORDINATES 31 float
-3.250000 3.250000 9.750000 16.250000 22.750000 29.250000 35.750000 42.250000 48.750000 55.250000 61.750000 68.250000 74.750000 81.250000 87.750000 94.250000 100.750000 107.250000 113.750000 120.250000 126.750000 
133.250000 139.750000 146.250000 152.750000 159.250000 165.750000 172.250000 178.750000 185.250000 191.750000 
Z_COORDINATES 31 float
-3.250000 3.250000 9.750000 16.250000 22.750000 29.250000 35.750000 42.250000 48.750000 55.250000 61.750000 68.250000 74.750000 81.250000 87.750000 94.250000 100.750000 107.250000 113.750000 120.250000 126.750000 
133.250000 139.750000 146.250000 152.750000 159.250000 165.750000 172.250000 178.750000 185.250000 191.750000 
CELL_DATA 27000
SCALARS FeatureIds int 1
LOOKUP_TABLE default
 72 72 319 319 319 360 360 360 327 327 327 279 279 279 307 307 307 171 343 343
 343 343 384 384 384 19 19 109 72 72 72 72 319 319 319 360 360 100 100 327
 327 279 279 279 307 307 307 171 171 343 343 384 384 384 384 384 109 109 109 72
 72 72 72 319 100 100 100 100 100 100 100 88 88 307 307 307 307 307 171 343
 336 336 384 384 384 109 109 109 109 109 109 72 72 100 100 100 100 100 100 100
 100 100 88 307 307 307 307 192 192 192 336 336 336 384 109 109 109 109 109 109
 109 3 3 3 3 100 100 100 100 100 100 100 88 88 307 192 192 192 192 192
 202 202 202 32 32 109 109 109 109 109 166 3 3 3 3 100 100 100 141 141
 141 379 388 88 192 192 192 192 192 192 202 202 202 32 32 109 109 9 109 109
 166 166 87 87 87 141 141 141 141 141 141 379 379 305 305 192 192 192 192 192
 202 202 202 32 32 109 109 9 166 166 166 166 87 87 87 141 141 141 141 141
 379 379 379 305 305 305 305 192 192 192 202 202 202 32 32 190 190 190 166 166
 166 166 87 87 87 141 141 141 141 141 379 379 379 305 305 305 305 305 305 44
 44 44 369 369 385 190 190 190 190 166 139 139 139 87 87 28 141 141 141 141
 379 379 379 305 305 305 305 305 305 305 44 44 44 44 385 385 190 190 190 166
 139 139 139 139 28 28 28 234 141 283 283 283 283 305 305 305 305 305 305 369
 369 44 44 385 385 385 190 190 190 139 139 139 139 139 28 28 28 234 135 135
 283 283 283 305 305 305 305 305 305 369 369 44 44 385 385 385 385 329 329 139
 139 139 139 139 28 28 28 234 135 135 283 283 283 168 168 168 168 168 168 175
 175 175 175 385 385 385 385 329 329 139 139 139 139 4 4 28 28 135 135 135
 135 283 283 168 168 168 168 168 168 175 175 175 175 175 385 385 385 328 329 139
 139 4 4 4 4 4 4 135 135 135 135 135 136 168 168 168 168 156 156 175
 175 175 175 175 175 328 328 328 328 328 4 4 4 4 4 4 184 184 184 184
 184 184 184 136 168 168 156 156 156 175 175 175 175 175 175 328 328 328 328 328
 4 4 4 4 4 4 184 184 184 184 184 184 184 184 89 89 156 156 175 175
 175 175 175 175 372 372 328 328 328 328 4 4 4 4 4 4 184 184 184 184
 184 184 184 184 89 89 89 156 175 175 175 175 175 175 372 372 372 328 328 328
 344 344 4 364 364 364 184 184 184 184 184 184 184 184 89 89 89 157 157 157
 175 175 175 175 372 372 372 355 333 333 344 344 344 364 364 364 364 184 184 184
 184 184 184 184 89 89 89 157 157 157 157 53 53 53 53 53 355 355 333 333
 344 344 344 364 364 364 364 364 364 184 184 184 18 18 18 226 314 314 314 314
 314 53 53 53 53 53 53 333 333 333 344 344 344 364 364 364 364 364 364 184
 18 18 18 18 18 363 314 314 314 314 314 53 53 53 53 53 53 333 333 344
 344 344 344 364 364 364 364 364 364 364 18 18 18 18 363 363 363 314 314 314
 314 53 53 53 53 53 53 333 333 344 344 344 344 364 364 364 364 364 364 18
 18 18 18 18 363 363 363 249 314 314 314 53 53 53 53 53 222 222 222 222
 252 252 252 364 364 364 364 364 223 18 18 18 18 18 18 363 249 249 249 249
 314 53 53 53 273 273 222 222 222 222 252 252 252 252 271 271 271 271 223 223
 223 18 18 18 18 249 249 249 249 249 249 228 228 273 273 273 273 222 222 222
 252 252 252 252 271 271 271 271 223 223 223 223 18 18 67 67 249 249 249 249
 228 228 228 228 273 273 273 222 222 252 252 252 252 252 271 271 271 271 223 223
 223 223 18 67 67 67 67 249 343 343 228 228 228 228 19 19 19 222 206 206
 252 252 252 319 271 271 271 271 327 327 327 327 327 67 67 67 67 343 343 343
 343 228 228 228 19 19 19 19 206 206 252 252 319 319 319 271 360 327 327 327
 327 327 279 279 307 307 307 343 343 343 343 343 384 384 19 19 19 19 206 206
 72 72 319 319 319 319 360 360 327 327 327 88 88 88 88 307 171 171 343 343
 343 343 218 218 19 19 19 109 109 72 72 72 319 319 319 319 100 100 100 100
 327 88 88 88 88 307 171 171 171 343 343 343 384 384 384 19 109 109 109 72
 72 72 319 319 100 100 100 100 100 100 100 88 88 88 88 307 307 171 171 233
 336 336 336 384 384 109 109 109 109 109 109 72 3 100 100 100 100 100 100 100
 100 88 88 88 88 307 192 192 192 233 336 336 336 336 109 109 109 109 109 109
 109 3 3 3 3 100 100 100 100 100 100 88 88 88 88 192 192 192 192 192
 202 202 202 202 109 109 109 109 109 109 166 3 3 3 3 100 100 100 100 100
 388 388 388 88 192 192 192 192 192 192 202 202 202 202 32 109 109 109 109 109
 166 166 3 3 3 141 141 141 141 141 388 388 388 305 305 192 192 192 192 192
 202 202 202 202 32 109 109 109 109 166 335 166 87 87 87 141 141 141 141 141
 388 379 305 305 305 305 305 192 192 192 202 202 202 202 32 190 190 190 166 335
 335 335 87 87 87 147 147 147 141 141 379 379 305 305 305 305 305 305 54 54
 44 44 44 44 385 190 190 190 190 335 335 139 139 87 147 147 147 147 147 147
 283 283 305 305 305 305 305 305 54 54 44 44 44 385 385 385 190 190 190 335
 139 139 139 139 147 147 147 147 147 130 283 283 283 305 305 305 305 305 305 54
 44 44 44 385 385 385 385 190 190 335 139 139 139 139 28 28 28 147 130 135
 283 283 283 305 305 305 305 305 305 54 44 44 44 385 385 385 385 385 329 139
 139 139 139 139 28 28 28 135 135 135 283 283 283 305 305 305 305 305 305 175
 175 175 175 385 385 385 385 385 329 139 126 126 126 4 4 28 28 135 135 135
 135 283 283 168 168 168 168 168 175 175 175 175 175 175 385 385 385 328 328 126
 126 4 4 4 4 4 4 135 135 135 135 136 136 136 136 168 168 46 175 175
 175 175 175 175 175 328 328 328 328 328 4 4 4 4 4 4 184 184 184 184
 184 184 136 136 136 168 46 46 175 175 175 175 175 175 175 328 328 328 328 328
 4 4 4 4 4 4 184 184 184 184 184 184 184 136 89 89 89 46 175 175
 175 175 175 175 175 328 328 328 328 328 333 4 4 4 4 4 184 184 184 184
 184 184 184 136 89 89 89 46 175 175 175 175 175 175 175 372 328 328 328 328
 333 333 4 364 364 364 184 184 184 184 184 184 184 184 89 89 89 157 157 157
 157 175 175 53 53 355 355 355 355 333 333 333 344 364 364 364 364 364 184 184
 184 184 184 226 226 226 226 157 157 157 157 157 53 53 53 53 355 355 333 333
 333 344 344 364 364 364 364 364 364 184 184 184 184 226 226 226 226 157 157 157
 157 53 53 53 53 53 355 355 333 333 333 344 344 364 364 364 364 364 364 184
 184 18 18 18 363 363 363 314 314 314 314 53 53 53 53 53 355 333 333 333
 333 344 344 364 364 364 364 364 364 364 18 18 18 18 363 363 363 314 314 314
 314 53 53 53 53 53 53 333 333 333 344 344 344 364 364 364 364 364 364 364
 18 18 18 18 363 363 363 363 314 314 314 53 53 53 53 53 222 222 222 333
 344 252 252 364 364 364 364 364 364 223 18 18 18 18 363 363 363 249 249 249
 314 53 53 53 273 273 222 222 222 222 252 252 252 252 271 271 271 223 223 223
 223 223 18 18 67 67 249 249 249 266 266 65 53 53 273 273 273 222 222 222
 252 252 252 252 271 271 271 223 223 223 223 223 18 67 67 67 67 249 266 266
 266 266 228 273 273 273 273 222 222 252 252 252 252 252 271 271 271 223 223 223
 223 223 223 67 67 67 67 67 343 266 266 266 218 218 19 19 19 222 206 206
 206 252 319 319 319 271 271 223 223 223 223 223 88 67 67 67 67 343 343 343
 343 343 218 218 19 19 19 19 206 206 252 319 319 319 319 319 360 327 327 327
 327 88 88 88 88 67 67 343 343 343 343 343 218 218 19 19 19 19 206 206
 72 72 319 319 319 319 325 325 325 325 88 88 88 88 88 88 88 171 343 343
 343 218 218 218 218 19 19 109 72 72 72 72 319 319 319 100 100 325 325 100
 88 88 88 88 88 88 171 171 171 343 343 218 218 218 218 109 109 109 109 72
 72 72 259 259 259 100 100 100 100 100 88 88 88 88 88 88 88 171 233 233
 233 336 336 218 109 109 109 109 109 109 109 72 259 259 259 100 100 100 100 100
 100 88 88 88 88 88 192 192 233 233 233 336 336 336 109 109 109 109 109 109
 109 259 259 259 259 100 100 100 100 100 388 388 388 88 88 192 192 192 192 233
 233 202 202 202 109 109 109 109 109 109 3 3 3 3 3 100 100 100 100 388
 388 388 388 388 388 192 192 192 192 192 202 202 202 202 109 109 109 109 109 109
 335 3 3 3 3 100 147 147 388 388 388 388 388 388 305 192 192 192 192 192
 202 202 202 202 109 109 43 109 109 109 335 335 87 87 147 147 147 147 147 388
 388 388 388 305 305 305 305 192 54 54 54 54 202 202 43 43 43 43 335 335
 335 335 87 87 147 147 147 147 147 147 68 68 68 305 305 305 305 305 54 54
 54 44 44 44 43 43 43 43 335 335 335 335 335 147 147 147 147 147 147 147
 68 68 305 305 305 305 305 305 54 54 54 44 44 44 385 43 43 43 43 335
 335 335 139 147 147 147 147 147 130 130 283 283 283 305 305 305 305 305 54 54
 54 44 44 385 385 385 385 43 43 335 335 126 126 78 78 78 78 147 130 130
 130 283 283 305 305 305 305 305 54 54 54 54 44 385 385 385 385 43 43 335
 126 126 126 126 78 78 78 78 130 130 130 283 283 305 305 305 305 305 54 175
 175 175 175 385 385 385 385 385 43 126 126 126 126 126 4 78 78 135 135 135
 135 283 136 136 136 136 46 46 46 175 175 175 175 175 385 385 385 328 126 126
 126 126 126 4 4 4 4 135 135 135 135 136 136 136 136 136 46 46 46 175
 175 175 175 175 175 328 328 328 328 126 126 4 4 4 4 4 184 184 184 184
 184 184 136 136 136 136 46 46 46 175 175 175 175 175 175 328 328 328 328 328
 4 4 4 4 4 4 184 184 184 184 184 184 136 136 136 89 46 46 46 175
 175 175 175 175 175 175 328 328 328 328 333 4 4 4 4 4 184 184 184 184
 184 184 184 136 89 89 89 46 46 175 175 175 175 175 175 355 355 355 355 355
 333 333 333 364 364 364 364 184 184 184 184 184 184 226 226 226 226 226 157 157
 157 175 175 175 355 355 355 355 355 355 333 333 333 364 364 364 364 364 184 184
 184 184 184 226 226 226 226 226 157 157 157 157 53 53 53 355 355 355 355 333
 333 333 333 364 364 364 364 364 364 184 184 184 226 226 226 226 226 226 157 157
 157 53 53 53 53 53 355 355 333 333 333 333 364 364 364 364 364 364 364 364
 337 337 226 226 226 226 226 226 314 314 314 53 53 53 53 53 355 333 333 333
 333 278 278 364 364 364 364 364 364 364 337 18 18 18 363 363 363 363 314 314
 314 53 53 53 53 53 333 333 333 333 278 278 278 364 364 364 364 364 364 364
 337 18 18 18 363 363 363 363 314 155 53 53 53 53 53 53 222 222 333 333
 278 278 278 364 364 364 364 60 60 60 223 178 18 18 363 363 363 249 249 266
 65 65 65 53 273 273 222 222 222 222 252 252 252 252 364 271 60 60 60 223
 223 223 178 178 363 67 249 266 266 266 266 65 65 273 273 273 273 222 222 222
 252 252 252 252 271 271 60 60 223 223 223 223 223 67 67 67 67 266 266 266
 266 266 266 273 273 273 273 222 222 222 206 252 252 319 271 271 271 223 223 223
 223 223 223 67 67 67 67 266 266 266 266 266 218 218 218 19 273 222 206 206
 206 252 319 319 319 331 271 223 223 223 223 223 88 88 67 67 67 343 343 343
 266 218 218 218 218 19 19 19 206 206 252 319 319 319 319 319 325 325 325 223
 223 88 88 88 88 88 67 343 343 343 343 218 218 218 218 19 19 19 206 206
 72 58 58 331 331 331 325 325 325 325 88 88 88 88 88 88 88 171 343 343
 343 218 218 218 218 218 19 109 109 72 72 58 58 58 58 58 325 325 325 325
 88 88 88 88 88 88 88 233 233 233 233 218 218 218 218 109 109 109 109 109
 72 72 259 259 259 339 339 339 339 339 88 88 88 88 88 88 88 233 233 233
 233 233 218 218 218 109 109 109 109 109 109 259 259 259 259 100 339 100 100 100
 388 388 88 88 88 88 88 233 233 233 233 233 336 289 109 109 109 109 109 109
 259 259 259 259 259 100 100 100 100 388 388 388 388 388 88 88 192 192 233 233
 233 233 202 289 109 109 109 109 109 109 335 3 3 3 3 100 339 339 100 388
 388 388 388 388 388 192 192 127 127 233 233 202 202 202 109 109 109 109 109 109
 335 335 3 3 3 147 147 147 388 388 388 388 388 388 388 192 192 192 192 192
 202 202 202 202 43 43 43 43 43 335 335 335 335 147 147 147 147 147 147 388
 68 68 388 388 305 239 239 239 54 54 54 54 54 152 43 43 43 43 43 335
 335 335 335 147 147 147 147 147 147 147 68 68 68 305 305 305 239 54 54 54
 54 54 54 152 43 43 43 43 43 335 335 335 335 335 147 147 147 147 147 130
 68 68 68 305 305 305 305 54 54 54 54 54 54 152 152 43 43 43 43 335
 335 335 335 78 78 147 147 147 130 130 130 68 68 305 305 305 305 54 54 54
 54 54 54 152 385 43 43 43 43 335 335 126 126 78 78 78 78 147 130 130
 130 130 283 305 305 305 305 54 54 54 54 54 54 385 385 385 43 43 43 335
 126 126 126 126 78 78 78 78 130 130 130 130 283 11 11 11 305 54 54 54
 175 175 175 175 385 385 43 43 43 126 126 126 126 126 78 78 78 142 142 130
 142 136 136 136 11 11 46 46 46 175 175 175 175 175 175 306 306 43 43 126
 126 126 126 126 4 4 78 142 142 142 142 136 136 136 136 11 46 46 46 175
 175 175 175 175 306 306 306 328 328 126 126 126 4 4 4 231 231 142 142 142
 142 136 136 136 136 11 46 46 46 175 175 175 175 175 306 306 306 328 328 126
 126 4 4 4 231 231 231 184 184 184 184 184 136 136 136 136 46 46 46 175
 175 175 175 175 306 306 306 328 328 355 333 215 4 231 231 231 231 184 184 184
 184 184 136 136 136 226 226 46 46 175 175 175 175 175 355 355 355 355 355 355
 333 215 215 231 231 231 231 184 184 184 184 184 383 383 226 226 226 226 157 157
 342 342 342 342 342 355 355 355 355 355 333 215 215 364 364 364 364 364 184 184
 184 184 383 383 226 226 226 226 157 157 342 342 342 53 53 355 355 355 355 333
 333 333 333 364 364 364 364 364 337 337 337 337 383 383 226 226 226 226 155 155
 342 342 53 53 53 355 355 355 333 333 333 333 333 364 364 364 364 364 337 337
 337 337 383 383 226 226 226 226 155 155 155 342 53 53 53 355 355 333 333 333
 333 278 278 364 364 364 364 364 337 337 337 337 178 178 363 363 363 155 155 155
 155 53 53 53 53 53 333 333 333 333 278 278 278 364 364 364 364 364 337 337
 337 178 178 178 178 363 113 113 113 155 65 65 65 53 53 185 333 333 333 333
 278 278 278 364 364 364 60 60 60 60 178 178 178 178 178 363 113 113 113 65
 65 65 65 65 273 185 222 222 222 222 278 278 278 364 364 364 60 60 60 223
 178 178 178 178 178 236 113 113 266 266 65 65 65 65 273 273 273 222 222 222
 252 252 252 331 331 60 60 60 246 246 246 178 178 178 236 236 236 113 266 266
 266 65 65 65 273 273 273 222 222 222 206 252 331 331 331 331 60 223 246 246
 246 223 178 236 236 236 236 266 266 266 266 266 218 218 218 218 164 164 164 206
 206 252 331 331 331 331 325 325 246 246 246 88 88 88 236 236 236 236 266 266
 266 218 218 218 218 218 19 164 206 206 252 319 331 331 331 331 325 325 325 325
 223 88 88 88 88 88 236 236 343 266 266 218 218 218 218 218 19 19 206 206
 58 58 58 331 331 331 325 325 325 325 88 88 88 88 88 88 88 311 311 311
 311 218 218 218 218 218 218 109 176 176 58 58 58 58 58 58 339 339 325 339
 88 88 88 88 88 88 88 311 233 233 233 218 218 218 218 218 109 109 109 176
 176 58 58 58 58 339 339 339 339 339 388 88 88 88 88 88 88 110 233 233
 233 233 289 289 289 109 109 109 109 109 176 259 259 259 259 339 339 339 339 339
 388 388 388 88 88 88 110 110 233 233 233 233 289 289 289 109 109 109 109 109
 259 259 259 259 259 339 339 339 339 388 388 388 388 388 388 127 127 127 127 233
 233 233 289 289 289 109 109 109 109 109 90 90 259 259 259 339 339 339 339 388
 388 388 388 388 388 127 127 127 127 127 233 233 289 289 289 43 109 109 109 109
 64 90 90 90 313 339 339 339 388 388 388 388 388 388 388 239 127 127 127 127
 233 371 371 152 43 43 43 43 43 43 64 335 335 147 147 147 147 147 147 388
 68 68 388 388 239 239 239 239 239 54 54 54 152 152 43 43 43 43 43 64
 64 335 335 147 147 147 147 147 147 68 68 68 68 388 239 239 239 239 54 54
 54 54 152 152 152 43 43 43 43 64 335 335 335 147 147 147 147 147 147 68
 68 68 68 305 305 239 239 239 54 54 54 54 152 152 152 43 43 43 43 64
 64 64 64 78 78 78 147 147 130 130 130 68 68 305 305 305 239 54 54 54
 54 54 152 152 152 43 43 43 43 64 64 126 126 78 78 78 78 78 130 130
 130 25 25 295 305 305 305 54 54 54 54 54 152 152 385 43 43 43 43 64
 126 126 126 78 78 78 78 78 130 130 130 130 295 295 11 11 11 220 220 220
 220 220 175 175 385 43 43 43 43 126 126 126 126 126 78 78 78 142 142 142
 142 142 11 11 11 11 11 46 220 220 220 175 175 175 306 306 306 367 367 126
 126 126 126 126 4 78 78 142 142 142 142 142 136 136 11 11 11 46 46 220
 220 175 175 175 306 306 306 367 367 367 126 126 126 231 231 231 231 2 142 142
 142 142 136 136 11 11 46 46 46 46 175 175 175 306 306 306 306 306 367 367
 126 126 4 231 231 231 231 142 142 142 142 142 136 136 136 11 46 46 46 46
 175 175 175 175 306 306 306 328 355 355 215 215 215 231 231 231 231 231 142 142
 142 142 136 136 383 226 226 46 46 342 342 342 342 342 306 355 355 355 355 355
 215 215 215 215 231 231 231 231 184 184 184 383 383 383 383 226 226 226 226 342
 342 342 342 342 342 355 355 355 355 355 215 215 215 215 231 231 231 231 337 337
 337 383 383 383 383 226 226 226 155 342 342 342 342 342 53 355 355 355 355 333
 333 215 215 215 364 364 364 337 337 337 337 337 383 383 383 226 226 155 155 155
 342 342 342 342 53 355 355 355 333 333 333 333 333 364 364 364 364 337 337 337
 337 337 383 383 383 226 226 155 155 155 155 342 342 342 53 355 355 333 333 333
 333 278 299 299 364 364 364 337 337 337 337 337 178 178 178 226 226 155 155 155
 155 155 65 380 185 185 185 333 333 333 83 278 299 299 299 364 364 347 337 337
 337 178 178 178 178 113 113 113 113 155 65 65 65 380 185 185 185 333 83 83
 83 278 299 299 299 347 347 347 347 337 178 178 178 178 178 113 113 113 113 65
 65 65 65 65 185 185 185 290 83 83 83 278 299 299 299 347 347 347 347 347
 178 178 178 178 178 236 113 113 113 65 65 65 65 65 65 185 290 290 290 83
 252 252 331 331 331 347 347 347 347 246 246 178 178 178 236 236 236 113 113 266
 65 65 65 65 65 164 164 164 164 164 322 322 331 331 331 331 347 347 246 246
 246 178 178 236 236 236 236 236 266 266 266 65 65 218 218 218 164 164 164 164
 322 322 331 331 331 331 331 325 325 246 246 88 88 236 236 236 236 236 266 266
 266 65 218 218 218 218 164 164 164 164 322 322 331 331 331 331 331 325 325 325
 325 88 88 88 88 236 236 236 311 266 311 218 218 218 218 218 164 164 164 176
 176 176 58 58 58 331 325 325 325 325 88 88 88 88 88 88 236 311 311 311
 311 311 218 218 218 218 218 176 176 176 176 176 58 58 58 58 339 339 339 339
 88 88 88 88 88 88 88 311 311 311 311 311 218 218 218 218 109 176 176 176
 176 176 58 58 58 339 339 339 339 339 388 388 88 88 88 88 110 110 110 233
 233 311 289 289 289 289 109 281 176 176 176 176 58 58 58 339 339 339 339 339
 388 388 388 388 88 88 110 110 110 233 233 233 289 289 289 289 281 281 281 176
 90 90 90 90 339 339 339 339 339 388 388 388 388 388 388 127 127 127 127 233
 233 371 289 289 289 289 281 281 281 281 90 90 90 90 339 339 339 339 339 388
 388 388 388 388 388 127 127 127 127 127 371 371 371 371 289 43 43 281 43 43
 90 90 90 90 313 313 313 339 388 388 388 388 388 388 388 239 127 127 127 127
 371 371 371 152 43 43 43 43 43 43 64 64 90 313 313 313 313 147 388 388
 388 388 388 388 239 239 239 239 239 54 54 371 152 152 43 43 43 43 43 64
 64 64 64 313 313 147 147 147 147 388 68 68 68 388 239 239 239 239 239 54
 54 152 152 152 152 43 43 43 64 64 64 64 64 64 147 147 147 147 147 68
 68 68 68 120 120 239 239 239 54 54 54 152 152 152 152 43 43 43 64 64
 64 64 64 78 78 78 147 147 147 130 25 25 25 25 120 120 239 239 54 54
 54 54 152 152 152 43 43 43 64 64 64 64 64 78 78 78 78 78 130 130
 25 25 25 25 11 120 129 129 54 54 54 96 152 152 152 43 43 43 64 64
 367 126 126 78 78 78 78 78 142 142 25 25 295 295 11 11 129 129 220 220
 220 96 96 152 152 43 43 43 367 367 367 126 126 126 78 78 78 142 142 142
 142 142 295 295 11 11 129 129 220 220 220 220 212 212 306 306 367 367 367 367
 367 126 126 126 78 78 2 2 142 142 142 142 11 11 11 11 11 129 220 220
 220 212 212 212 306 306 306 367 367 367 367 126 126 231 231 231 2 2 142 142
 142 142 11 11 11 11 11 46 46 46 175 212 212 212 306 306 306 306 367 367
 367 215 231 231 231 231 231 2 142 142 142 142 136 11 11 11 11 46 46 342
 175 212 212 212 306 306 306 306 367 367 215 215 215 231 231 144 231 231 142 142
 142 142 383 383 383 11 11 46 342 342 342 342 342 342 306 306 355 355 355 215
 215 215 215 215 231 231 231 231 142 142 142 383 383 383 383 383 226 226 342 342
 342 342 342 342 342 355 355 355 355 215 215 215 215 215 231 231 231 231 337 337
 337 383 383 383 383 226 226 226 155 342 342 342 342 342 342 355 355 355 355 215
 215 215 215 215 364 364 364 337 337 337 337 337 383 383 383 226 226 155 155 155
 342 342 342 342 342 355 355 355 355 333 309 215 215 215 364 365 365 337 337 337
 337 337 383 383 383 226 226 155 155 155 155 342 342 342 185 185 355 355 309 309
 83 278 299 299 299 365 365 365 337 337 337 337 178 178 178 113 155 155 155 155
 155 155 65 380 185 185 185 185 83 83 83 278 299 299 299 365 365 365 365 337
 337 178 178 178 178 113 113 113 113 155 65 65 65 380 185 185 185 185 83 83
 83 278 299 299 299 347 347 347 347 347 178 178 178 178 178 113 113 113 113 65
 65 65 65 380 185 185 185 290 83 83 83 278 299 299 299 347 347 347 347 347
 178 178 178 178 178 236 113 113 113 65 65 65 65 65 65 185 290 290 290 83
 83 322 299 331 331 347 347 347 347 347 178 178 178 178 236 236 236 113 113 65
 65 65 65 65 65 164 164 164 164 164 322 322 322 331 331 331 347 347 347 347
 246 178 178 236 236 236 236 236 113 266 65 65 65 65 65 164 164 164 164 164
 322 322 322 331 331 331 347 347 325 246 246 88 88 236 236 236 236 236 311 311
 311 311 218 218 218 218 164 164 164 164 322 322 322 331 331 331 331 325 325 325
 88 88 88 88 236 236 236 311 311 311 311 311 218 218 218 218 164 164 164 176
 176 176 205 58 58 58 160 160 160 160 200 88 88 88 88 236 311 311 311 311
 311 311 311 218 218 218 253 176 176 176 176 176 58 58 58 58 339 339 339 339
 339 88 88 88 88 88 311 311 311 311 311 311 311 289 289 281 281 281 176 176
 176 176 58 58 58 339 339 339 339 339 388 388 388 88 88 88 110 110 311 311
 311 311 289 289 289 281 281 281 281 176 176 176 58 58 339 339 339 339 339 339
 388 388 388 388 388 88 110 110 110 233 371 371 289 289 289 281 281 281 281 176
 90 90 90 90 339 339 339 339 339 388 388 388 388 388 388 127 127 127 127 127
 371 371 371 289 289 289 281 281 281 281 90 90 90 90 313 313 339 339 339 388
 388 388 388 388 388 127 127 127 127 127 371 371 371 371 289 281 281 281 281 281
 90 90 90 90 313 313 313 313 388 388 388 388 388 388 388 239 127 127 127 127
 371 371 371 371 43 43 43 43 43 43 64 90 90 313 313 313 313 313 388 388
 388 388 388 388 120 239 239 239 239 239 371 371 371 152 43 43 43 43 43 64
 64 64 90 313 313 313 313 313 388 388 388 388 388 120 120 120 239 239 239 54
 371 371 152 152 152 43 43 43 64 64 64 64 64 313 313 313 313 313 147 388
 68 68 68 120 120 120 120 239 239 54 96 96 152 152 152 43 43 43 64 64
 64 64 64 78 78 78 147 147 147 323 323 323 323 120 120 120 120 120 54 54
 96 96 96 152 152 43 43 43 64 64 64 64 64 1 78 78 78 56 56 130
 323 323 323 120 120 120 129 129 129 96 96 96 96 152 152 43 43 43 64 64
 367 367 352 1 78 78 56 56 56 142 323 323 323 11 11 129 129 129 129 220
 96 96 96 96 212 43 43 367 367 367 367 367 126 1 78 56 56 56 56 142
 142 142 295 295 11 11 129 129 129 220 220 96 212 212 212 212 367 367 367 367
 367 367 126 126 231 56 56 56 142 142 142 142 11 11 11 11 129 129 129 220
 220 212 212 212 212 306 306 367 367 367 367 367 367 231 231 231 2 2 142 142
 142 142 11 11 11 11 11 129 129 220 220 212 212 212 212 306 306 367 367 367
 367 367 231 231 231 231 231 142 142 142 142 142 11 11 11 11 11 46 129 342
 212 212 212 212 212 306 306 367 367 367 215 215 215 231 231 231 231 231 142 142
 142 142 383 383 116 116 116 116 342 342 342 342 342 212 212 350 350 355 367 367
 215 215 215 231 231 231 231 231 286 286 286 286 383 383 383 116 116 116 342 342
 342 342 342 342 350 350 350 355 355 215 215 215 215 215 231 231 231 231 337 286
 286 286 383 383 383 383 226 155 155 155 342 342 342 342 350 350 350 355 309 215
 309 215 215 215 231 231 231 337 337 337 337 286 383 383 383 383 226 155 155 155
 342 342 342 342 350 350 350 309 309 309 309 309 215 215 299 365 365 365 337 337
 337 337 383 383 383 383 155 155 155 155 155 342 342 342 350 350 350 309 309 309
 309 309 299 299 299 365 365 365 365 337 337 337 178 178 383 250 155 155 155 155
 155 65 65 380 185 185 185 309 309 309 83 309 299 299 299 365 365 365 365 365
 337 178 178 178 178 113 113 113 113 155 65 65 65 380 185 185 185 185 83 83
 83 83 299 299 299 365 365 365 365 365 178 178 178 178 178 346 113 113 113 65
 65 65 65 65 185 185 185 290 83 83 83 83 299 299 299 365 347 347 347 347
 178 178 178 178 346 346 113 113 113 65 65 65 65 65 65 185 290 290 290 83
 205 205 205 205 331 365 347 347 347 347 178 178 178 236 236 236 236 113 113 65
 65 65 65 65 65 65 164 164 164 164 205 205 205 205 331 287 347 347 347 347
 178 178 236 236 236 236 236 236 311 311 311 65 65 65 65 164 164 164 164 164
 322 322 205 205 331 331 160 160 160 160 160 88 236 236 236 236 236 311 311 311
 311 311 311 218 218 164 164 164 164 205 205 205 205 205 331 331 160 160 160 160
 88 88 88 236 236 236 236 311 311 311 311 311 311 218 218 218 164 164 176 176
 176 205 205 205 58 58 160 160 160 200 200 200 200 200 88 236 311 311 311 311
 311 311 311 311 253 253 253 253 176 176 176 176 176 58 58 58 339 339 339 339
 200 200 200 200 88 88 311 311 311 311 311 311 311 311 289 281 281 281 176 176
 176 176 176 58 58 339 339 339 339 339 388 200 200 200 88 88 311 311 311 311
 311 311 289 289 289 281 281 281 281 176 176 176 176 58 339 339 339 339 339 339
 388 388 388 388 388 388 114 114 114 311 371 371 371 371 289 281 281 281 281 176
 90 90 90 90 339 339 339 339 339 388 388 388 388 388 388 388 114 114 114 371
 371 371 371 371 256 256 281 281 281 281 90 90 90 90 313 313 313 339 388 388
 388 388 388 388 388 127 114 114 114 371 371 371 371 371 256 256 256 281 281 281
 90 90 90 90 313 313 313 313 388 388 388 388 388 388 388 239 127 114 114 371
 371 371 371 371 256 256 43 43 43 64 64 90 90 313 313 313 313 313 388 388
 388 388 388 388 120 120 239 239 239 371 371 371 371 371 43 43 43 43 43 64
 64 64 90 313 313 313 313 313 162 162 388 388 388 120 120 120 120 120 239 14
 371 371 152 152 152 43 43 43 64 64 64 64 352 313 313 313 313 313 162 162
 162 388 388 120 120 120 120 120 120 96 96 96 96 152 152 43 43 43 64 64
 64 352 352 352 313 313 313 56 56 162 323 323 323 120 120 120 120 120 120 96
 96 96 96 152 152 43 43 43 64 64 352 352 352 1 1 78 56 56 56 56
 323 323 323 120 120 120 129 129 129 96 96 96 96 96 96 43 43 43 64 64
 367 352 352 1 1 56 56 56 56 56 323 323 323 11 11 129 129 129 129 129
 96 96 96 96 212 26 367 367 367 367 367 367 1 1 1 56 56 56 56 142
 142 142 11 11 11 129 129 129 129 129 96 96 212 212 212 26 26 367 367 367
 367 367 367 1 1 56 56 56 56 142 142 142 11 11 11 8 129 129 129 129
 103 103 212 212 212 212 306 367 367 367 367 367 367 231 231 56 56 142 142 142
 142 142 11 11 8 8 8 129 129 103 103 103 212 212 212 306 306 367 367 367
 367 81 231 231 231 231 231 142 142 142 142 142 11 11 11 116 116 129 129 103
 103 103 212 212 212 212 306 367 367 367 81 81 215 231 231 231 231 231 142 142
 286 286 286 383 116 116 116 116 345 345 342 342 212 212 350 350 350 350 367 367
 81 215 215 231 231 231 231 231 286 286 286 286 286 383 116 116 116 116 345 342
 342 342 342 350 350 350 350 350 350 215 215 215 215 215 231 231 231 231 286 286
 286 286 286 383 383 250 250 155 155 342 342 342 342 350 350 350 350 350 309 309
 309 309 81 81 231 231 365 365 286 286 286 286 383 383 250 250 250 155 155 155
 342 342 342 350 350 350 350 309 309 309 309 309 81 81 365 365 365 365 365 337
 286 286 383 383 250 250 250 155 155 155 155 342 48 48 350 350 350 309 309 309
 309 309 299 299 299 365 365 365 365 365 337 337 62 250 250 250 250 155 155 155
 155 48 48 48 48 350 350 309 309 309 309 309 299 299 299 365 365 365 365 365
 62 62 178 178 346 346 346 113 113 155 65 65 48 48 48 185 185 309 309 309
 83 83 299 299 299 365 365 365 365 365 365 178 178 178 346 346 346 113 113 65
 65 65 65 48 48 185 185 290 83 83 83 205 299 299 365 365 365 365 365 365
 365 178 178 178 346 346 346 113 113 86 65 65 65 65 65 185 290 290 290 83
 205 205 205 205 287 365 365 365 365 365 22 22 178 236 346 346 346 113 113 311
 65 65 65 65 65 65 164 164 164 199 205 205 205 205 287 287 160 160 160 160
 22 22 236 236 236 236 236 311 311 311 311 311 65 65 65 164 164 164 164 205
 205 205 205 205 287 287 160 160 160 160 22 22 236 236 236 236 236 311 311 311
 311 311 311 311 253 253 253 253 253 205 205 205 205 205 331 160 160 160 160 160
 200 200 200 236 236 236 311 311 311 311 311 311 311 311 253 253 253 253 176 176
 176 205 205 205 58 160 160 160 160 200 200 200 200 200 200 311 311 311 311 311
 311 311 311 311 253 253 253 253 176 176 176 176 176 58 58 58 339 339 339 200
 200 200 200 200 200 179 311 311 311 311 311 311 311 311 253 253 253 281 176 176
 176 176 176 58 58 339 339 339 339 200 200 200 200 200 200 179 179 311 311 311
 311 311 311 289 256 281 281 281 281 176 176 176 176 58 339 339 339 339 339 339
 388 200 200 200 200 264 114 114 311 311 371 371 371 256 256 256 281 281 281 176
 176 90 90 90 313 339 339 339 339 388 388 388 388 388 264 264 114 114 114 371
 371 371 371 256 256 256 256 281 281 281 90 90 90 90 313 313 313 339 388 388
 388 388 388 388 264 264 264 114 114 371 371 371 371 256 256 256 256 256 281 281
 90 90 90 313 313 313 313 313 388 388 388 388 388 388 264 264 264 114 114 371
 371 371 371 256 256 256 256 256 256 64 64 90 90 313 313 313 313 313 162 162
 388 388 388 388 120 120 120 239 114 14 371 371 371 256 256 256 256 43 43 64
 64 64 51 51 313 313 313 313 162 162 162 388 388 120 120 120 120 120 14 14
 14 371 371 152 196 43 43 43 64 64 352 352 352 352 313 313 313 162 162 162
 162 162 120 120 120 120 120 120 14 14 14 96 96 152 152 43 43 43 64 64
 352 352 352 352 1 313 313 162 162 162 162 323 323 120 120 120 120 120 14 14
 96 96 96 96 152 43 282 282 282 352 352 352 352 1 1 1 56 56 56 162
 323 323 323 120 120 120 129 129 129 96 96 96 96 96 26 26 282 282 282 282