# vtk DataFile Version 2.0
Data set from IO Version 6.4.197.9a0dee2
ASCII

DATASET RECTILINEAR_GRID
DIMENSIONS 31 31 31
X_COORDINATES 31 float
-3.250000 3.250000 9.750000 16.250000 22.750000 29.250000 35.750000 42.250000 48.750000 55.250000 61.750000 68.250000 74.750000 81.250000 87.750000 94.250000 100.750000 107.250000 113.750000 120.250000 126.750000 
133.250000 139.750000 146.250000 152.750000 159.250000 165.750000 172.250000 178.750000 185.250000 191.750000 
Y_COORDINATES 31 float
-3.250000 3.250000 9.750000 16.250000 22.750000 29.250000 35.750000 42.250000 48.750000 55.250000 61.750000 68.250000 74.750000 81.250000 87.750000 94.250000 100.750000 107.250000 113.750000 120.250000 126.750000 
133.250000 139.750000 146.250000 152.750000 159.250000 165.750000 172.250000 178.750000 185.250000 191.750000 
Z_COORDINATES 31 float
-3.250000 3.250000 9.750000 16.250000 22.750000 29.250000 35.750000 42.250000 48.750000 55.250000 61.750000 68.250000 74.750000 81.250000 87.750000 94.250000 100.750000 107.250000 113.750000 120.250000 126.750000 
133.250000 139.750000 146.250000 152.750000 159.250000 165.750000 172.250000 178.750000 185.250000 191.750000 
CELL_DATA 27000
SCALARS FeatureIds int 1
LOOKUP_TABLE default
 195 195 195 195 401 401 401 401 401 122 122 122 208 208 282 282 282 282 272 272
 272 377 377 377 377 377 269 269 269 195 195 195 195 195 401 401 401 401 401 401
 122 208 208 208 208 282 282 282 216 272 272 158 158 158 158 158 269 269 269 195
 195 195 195 97 97 401 401 401 401 32 32 123 208 208 208 282 216 216 216 216
 158 158 158 158 158 158 269 269 269 195 195 195 97 97 97 401 401 401 32 32
 32 123 123 207 207 216 216 216 216 216 216 158 158 158 158 158 69 69 69 69
 69 69 97 97 97 327 327 327 327 32 32 123 207 207 207 207 216 216 216 414
 414 414 283 283 283 316 316 69 69 69 69 198 198 97 97 327 327 327 327 261
 118 118 207 207 207 207 216 216 414 414 414 414 283 283 283 316 316 69 69 69
 331 198 198 198 198 327 327 327 327 182 118 118 207 207 207 207 207 120 414 414
 414 414 283 283 316 316 316 69 331 331 331 219 198 198 198 327 327 327 182 182
 118 118 118 118 207 207 120 120 414 414 414 414 283 316 316 316 316 316 331 331
 331 219 219 198 298 298 327 182 182 182 118 118 118 118 355 355 355 120 414 414
 414 115 115 316 316 316 316 316 331 331 331 219 219 219 298 298 298 56 56 56
 118 118 118 118 355 355 355 355 227 414 115 115 84 84 316 316 316 146 146 331
 331 395 395 395 395 298 356 356 56 56 118 118 94 94 94 355 355 355 227 227
 84 84 84 84 316 316 316 146 146 331 395 395 395 395 395 356 356 356 71 71
 71 71 94 94 94 355 355 227 227 227 84 84 84 84 236 236 236 236 146 331
 395 395 395 395 395 356 356 356 356 71 90 90 94 94 94 94 276 276 227 227
 84 84 84 295 295 236 236 236 236 383 383 395 395 395 395 356 356 356 356 356
 90 90 90 94 417 417 417 276 276 168 84 84 295 295 295 236 236 236 383 383
 383 383 357 357 357 356 356 356 356 356 90 90 90 417 417 417 417 417 168 168
 168 84 295 295 295 236 236 236 383 383 383 383 357 357 357 356 356 356 356 47
 47 90 90 417 417 417 417 417 168 168 168 168 295 185 185 185 185 383 383 383
 383 383 357 357 357 357 418 418 47 47 47 47 417 417 417 417 417 417 168 168
 168 168 185 185 185 185 185 185 383 383 383 383 357 357 357 418 418 418 47 47
 47 47 405 417 417 417 417 412 412 168 168 168 185 185 185 185 185 185 383 383
 243 243 243 64 64 64 64 418 47 47 47 47 405 405 405 417 412 412 412 412
 197 197 185 185 185 185 185 185 243 243 243 243 403 64 64 64 64 418 47 47
 37 37 405 405 405 405 412 412 197 197 197 197 197 185 185 185 185 243 243 243
 243 403 403 403 64 64 64 205 205 37 37 37 37 405 405 405 44 44 197 197
 197 197 197 51 185 185 185 243 243 243 243 403 403 403 403 403 205 205 205 37
 37 37 37 37 405 44 44 44 197 197 197 197 197 51 51 51 51 243 243 243
 5 5 403 403 403 403 205 205 205 37 37 37 37 37 89 89 44 44 237 197
 197 197 197 51 51 51 51 358 358 358 5 5 5 403 403 403 205 205 205 45
 45 45 45 45 89 89 89 237 237 237 237 237 153 51 51 51 51 358 358 358
 5 5 5 403 403 73 73 73 73 45 45 45 45 45 359 359 359 237 237 237
 237 237 153 153 51 51 51 358 358 358 5 204 204 204 204 73 73 73 73 45
 45 45 45 359 359 359 359 359 237 237 237 153 153 153 153 153 191 191 191 191
 251 204 204 204 204 73 73 73 73 155 155 155 155 155 359 359 359 359 237 237
 237 153 153 153 153 191 191 191 191 191 251 251 204 204 204 204 73 73 73 155
 155 155 155 155 359 359 359 272 272 272 272 377 377 377 377 191 191 191 191 191
 251 251 251 204 204 204 73 389 122 122 155 155 155 155 282 282 282 282 272 272
 272 377 377 377 377 377 191 191 191 251 251 251 251 204 204 204 389 389 122 122
 122 155 155 282 282 282 282 282 272 272 272 377 377 377 377 377 191 191 191 251
 195 195 195 195 195 401 389 389 389 279 279 279 208 208 208 282 282 282 272 272
 272 377 377 377 377 377 269 269 269 195 195 195 195 195 401 401 401 401 401 401
 279 208 208 208 208 282 282 216 216 216 272 377 377 377 377 377 269 269 269 61
 195 195 195 195 97 401 401 401 32 32 32 123 208 208 208 216 216 216 216 216
 216 158 158 158 158 158 269 269 61 61 195 195 195 97 97 401 401 401 32 32
 32 123 123 207 207 216 216 216 216 216 216 158 158 158 158 283 269 69 69 195
 69 69 97 97 97 327 327 327 327 32 32 123 207 207 207 207 216 216 216 216
 414 283 283 283 283 283 283 69 69 69 198 198 198 198 198 327 327 327 327 182
 118 207 207 207 207 207 120 216 216 414 414 283 283 283 283 316 316 69 69 331
 331 198 198 198 198 327 327 327 182 182 182 207 207 207 207 207 120 120 120 414
 414 414 283 283 283 316 316 331 331 331 331 198 198 198 198 327 327 182 182 182
 182 118 118 207 207 120 120 120 120 414 414 414 283 316 316 316 316 331 331 331
 331 198 198 198 298 298 298 182 182 182 182 118 118 118 355 355 355 120 120 120
 414 84 84 316 316 316 316 331 331 331 331 219 219 298 298 298 298 298 56 56
 56 118 118 94 355 355 355 120 120 120 84 84 84 84 316 316 316 331 331 331
 395 395 395 395 298 298 298 71 71 56 71 71 94 94 94 355 355 227 227 227
 84 84 84 84 316 316 316 146 146 331 395 395 395 395 395 298 71 71 71 71
 71 71 94 94 94 355 355 227 227 227 227 84 84 84 236 236 236 318 318 318
 395 395 395 395 395 356 71 71 71 71 71 71 94 94 94 355 276 276 227 227
 84 84 84 295 295 236 236 236 378 318 395 395 395 395 395 356 356 71 71 71
 71 90 94 94 417 417 276 276 276 168 84 84 295 295 295 236 236 378 378 378
 383 383 357 357 357 356 356 356 71 71 71 90 90 417 417 417 417 276 168 168
 168 168 295 295 295 236 378 378 378 378 383 383 357 357 357 356 356 356 356 47
 380 380 417 417 417 417 417 417 168 168 168 168 295 295 295 185 378 378 378 383
 383 383 357 357 357 357 418 418 47 47 47 380 417 417 417 417 417 417 168 168
 168 168 185 185 185 185 185 378 378 383 243 383 357 357 357 418 418 154 47 47
 47 47 405 417 417 417 417 417 168 168 168 168 185 185 185 185 185 185 243 243
 243 243 243 64 64 64 154 154 154 47 47 405 405 405 405 405 412 412 412 168
 197 197 185 185 185 185 185 243 243 243 243 243 403 403 403 403 154 154 154 37
 37 37 405 405 405 405 44 44 197 197 197 197 197 185 185 185 185 243 243 243
 243 403 403 403 403 403 205 205 205 37 37 37 37 405 405 405 44 44 197 197
 197 197 197 347 51 25 243 243 243 243 243 403 403 403 403 403 205 205 205 37
 37 37 37 37 405 44 44 44 197 197 197 197 197 51 51 51 25 243 243 243
 5 403 403 403 403 403 205 205 205 37 37 37 37 37 89 89 44 44 44 197
 197 197 197 51 51 51 51 358 358 358 5 403 403 403 403 403 205 205 205 37
 37 37 37 37 89 89 89 44 237 197 197 197 153 51 51 51 51 358 358 358
 5 5 5 403 403 403 73 73 73 350 45 45 45 89 89 89 89 44 237 237
 237 197 153 153 51 51 51 191 358 358 251 251 204 204 204 73 73 73 73 350
 350 45 45 359 359 359 359 359 237 237 237 153 153 153 153 153 191 191 191 191
 251 251 204 204 204 73 73 170 170 350 155 155 155 155 359 359 359 359 272 272
 272 153 153 153 153 191 191 191 191 191 251 251 251 204 204 204 170 170 170 155
 155 155 155 155 359 359 282 272 272 272 272 272 377 377 377 191 191 191 191 191
 251 251 251 204 204 204 389 389 389 122 279 279 279 279 282 282 282 282 272 272
 272 272 377 377 377 377 191 191 191 251 251 251 251 251 204 204 389 389 389 122
 279 279 279 208 282 282 282 282 272 272 272 377 377 377 377 377 191 191 191 251
 195 195 195 195 304 304 389 389 389 279 279 279 279 208 226 226 226 226 333 333
 333 377 377 377 377 377 137 137 137 195 195 195 195 195 304 304 401 401 401 279
 279 279 208 208 208 226 226 216 333 333 333 377 377 377 377 377 137 137 61 61
 195 195 195 195 304 304 401 401 32 32 32 123 208 208 208 216 216 216 216 333
 333 333 158 158 158 137 137 137 61 61 195 195 195 195 304 304 401 401 32 32
 32 123 123 207 207 207 216 216 216 216 333 333 283 283 283 283 137 137 61 61
 69 195 195 97 97 327 327 327 327 32 32 360 207 207 207 207 216 216 216 216
 1 283 283 283 283 283 283 69 69 69 198 198 198 198 198 327 327 327 327 182
 360 360 207 207 207 207 120 120 120 1 1 283 283 283 283 316 316 331 331 331
 331 198 198 198 198 327 327 327 182 182 182 360 207 207 207 120 120 120 120 120
 414 414 283 283 283 316 316 331 331 331 331 198 198 198 298 298 298 182 182 182
 182 182 207 207 207 120 120 120 120 120 120 414 283 316 316 316 316 331 331 331
 331 198 198 198 298 298 298 182 182 182 182 118 118 118 355 355 120 120 120 120
 84 84 84 316 316 316 318 331 331 331 331 198 198 298 298 298 298 298 56 56
 56 118 94 94 355 355 355 120 120 120 84 84 84 84 316 318 318 318 318 331
 331 395 395 395 298 298 298 71 71 71 71 71 94 94 94 355 355 120 227 227
 84 84 84 84 84 318 318 318 318 318 395 395 395 395 395 298 71 71 71 71
 71 71 94 94 94 355 355 227 227 227 84 84 84 84 84 318 318 318 318 318
 395 395 395 395 395 298 71 71 71 71 71 71 94 94 94 94 276 276 227 227
 84 84 84 295 295 318 318 318 318 318 22 22 395 395 395 71 71 71 71 71
 71 71 94 94 417 417 276 276 93 93 93 84 295 295 295 295 378 378 378 378
 378 22 22 395 186 186 71 71 71 71 380 380 380 417 417 417 417 417 168 168
 168 84 295 295 295 295 378 378 378 378 378 378 378 357 357 186 71 71 71 380
 380 380 380 417 417 417 417 417 168 168 168 168 295 295 295 378 378 378 378 378
 378 378 378 357 357 357 154 154 154 380 380 380 380 417 417 417 417 417 168 168
 168 168 295 185 185 185 378 378 378 378 378 378 404 404 404 154 154 154 154 154
 380 380 380 417 417 417 417 417 168 168 168 168 185 185 185 185 378 378 378 378
 243 243 404 404 404 154 154 154 154 154 154 405 405 405 405 417 417 417 197 197
 197 197 347 185 185 25 25 25 243 243 243 243 404 404 404 154 154 154 154 154
 37 37 405 405 405 405 44 44 197 197 197 197 347 347 25 25 25 25 243 243
 243 403 403 403 403 403 154 154 154 37 37 37 37 405 405 405 44 44 197 197
 197 197 347 347 347 25 25 25 243 243 243 403 403 403 403 403 205 205 205 37
 37 37 37 37 405 44 44 44 44 197 197 197 347 347 347 25 25 25 243 243
 403 403 403 403 403 403 205 205 205 37 37 37 37 37 89 89 44 44 44 197
 197 197 347 347 347 51 25 25 243 243 403 403 403 403 403 403 205 205 205 37
 37 37 37 37 89 89 89 44 237 197 197 197 342 342 51 51 294 294 358 358
 262 262 262 262 403 170 170 170 350 350 350 37 37 255 89 89 89 89 237 237
 342 342 342 342 406 51 191 191 191 191 262 262 262 262 262 170 170 170 350 350
 350 350 255 255 255 255 359 359 237 272 342 342 342 406 406 238 191 191 191 191
 262 262 262 262 204 170 170 170 170 350 350 155 279 255 255 255 226 226 272 272
 272 342 342 238 238 238 191 191 191 191 251 251 251 204 204 170 170 170 170 170
 279 279 279 279 226 226 226 226 272 272 272 272 238 238 238 191 191 191 191 191
 251 251 251 251 204 170 170 170 170 170 279 279 279 279 226 226 226 226 272 272
 272 272 377 377 377 377 191 191 191 251 251 251 251 251 204 170 389 389 389 279
 279 279 279 279 226 226 226 226 272 272 272 377 377 377 377 377 191 191 191 251
 195 195 195 304 304 304 304 304 170 279 279 279 279 279 226 226 226 226 333 333
 333 377 377 377 377 377 137 137 137 137 195 195 195 304 304 304 304 304 304 279
 279 279 279 208 226 226 226 226 333 333 333 333 377 82 377 137 137 137 137 61
 195 195 195 304 304 304 304 304 304 32 32 123 208 208 208 226 216 216 333 333
 333 333 82 82 377 137 137 137 137 61 195 195 195 304 304 304 304 304 32 32
 32 123 123 207 207 207 216 216 216 1 1 1 283 283 283 137 137 137 137 61
 194 195 195 304 304 304 327 327 327 32 360 360 360 207 207 207 120 216 1 1
 1 1 283 283 283 283 137 194 194 194 194 198 198 198 304 327 327 327 327 360
 360 360 360 207 207 120 120 120 1 1 1 1 283 283 283 283 194 194 194 194
 194 198 198 198 298 298 327 327 182 182 360 360 360 207 207 120 120 120 120 120
 1 1 283 283 283 316 194 194 194 194 331 198 198 198 298 298 298 182 182 182
 182 182 207 52 120 120 120 120 120 120 120 29 29 29 29 29 194 194 194 194
 331 198 198 298 298 298 298 298 182 182 182 118 207 52 120 120 120 120 120 120
 120 84 29 29 29 318 318 318 318 331 331 198 298 298 298 298 298 298 71 71
 71 71 337 94 355 355 120 120 120 120 84 84 84 233 233 318 318 318 318 318
 318 21 395 298 298 298 298 71 71 71 71 71 94 94 94 355 120 120 120 93
 84 84 84 233 233 318 318 318 318 318 318 21 395 395 298 298 320 320 71 71
 71 71 94 94 94 355 93 93 93 93 84 84 84 233 233 318 318 318 318 318
 22 22 22 395 186 186 71 71 71 71 71 71 94 94 94 94 93 93 93 93
 93 84 84 233 233 318 318 318 318 318 22 22 22 395 186 186 71 71 71 71
 71 380 380 380 417 417 93 93 93 93 93 93 93 295 295 138 378 378 378 378
 378 22 22 186 186 186 186 71 71 380 380 380 380 380 417 417 417 93 93 93
 93 93 93 295 138 138 378 378 378 378 378 378 22 186 186 186 186 71 380 380
 380 380 380 380 417 417 417 93 93 93 93 93 93 138 138 138 378 378 378 378
 378 378 378 165 165 124 124 124 380 380 380 380 380 380 417 417 417 417 168 93
 93 93 93 138 138 138 378 378 378 378 378 378 404 404 404 154 154 154 154 380
 380 380 380 380 417 417 417 62 62 93 93 93 347 138 138 138 378 378 378 378
 243 243 404 404 404 154 154 154 154 154 380 380 380 405 405 417 62 62 62 197
 197 347 347 25 25 25 25 25 378 243 243 243 404 404 404 154 154 154 154 154
 37 37 37 405 405 405 44 44 197 197 197 347 347 347 25 25 25 25 25 243
 361 403 404 404 404 154 154 154 154 154 37 37 37 405 405 353 44 44 197 197
 197 347 347 347 347 25 25 25 25 361 361 403 403 403 403 403 154 154 154 154
 37 37 37 37 353 353 44 44 44 197 197 347 347 347 347 25 25 25 361 361
 361 403 403 403 403 403 205 205 205 37 37 37 37 37 353 353 353 44 44 197
 197 347 347 347 294 294 25 25 361 361 361 262 262 403 403 403 170 170 350 350
 37 37 37 255 89 353 89 44 237 197 197 342 342 342 294 294 294 294 361 361
 262 262 262 262 262 170 170 170 350 350 350 350 255 255 255 255 89 89 112 112
 342 342 342 342 406 294 294 294 191 361 262 262 262 262 262 170 170 170 350 350
 350 350 255 255 255 255 255 112 112 112 342 342 342 144 406 238 294 191 191 191
 262 262 262 262 262 170 170 170 170 350 350 350 255 255 255 255 255 112 112 272
 272 342 342 238 238 238 191 191 191 191 251 251 262 262 170 170 170 170 170 170
 279 279 279 255 255 226 226 226 272 272 272 238 238 238 238 238 191 191 191 191
 251 251 251 251 251 170 170 170 170 170 279 279 279 279 226 226 226 226 272 272
 272 238 238 238 238 238 191 191 191 251 251 251 251 251 304 304 170 170 170 279
 279 279 279 279 226 226 226 226 301 301 301 377 377 377 377 377 191 137 137 137
 149 149 149 304 304 304 304 304 170 279 279 279 279 279 226 226 226 226 301 301
 301 301 82 82 82 82 137 137 137 137 195 195 304 304 304 304 304 304 304 279
 279 279 279 230 226 226 226 226 333 333 333 82 82 82 82 137 137 137 137 61
 195 195 304 304 304 304 304 304 304 304 373 373 373 230 150 150 150 150 333 333
 333 82 82 82 82 137 137 137 137 61 194 195 304 304 304 304 304 304 304 373
 373 373 373 373 150 150 150 1 1 1 1 1 82 82 82 137 137 137 137 194
 194 194 304 304 304 304 304 304 304 360 360 373 373 207 150 150 150 1 1 1
 1 1 1 245 245 245 137 194 194 194 194 16 16 161 161 161 161 196 196 360
 360 360 360 207 207 120 120 120 1 1 1 1 245 245 245 245 194 194 194 194
 194 16 16 161 161 161 161 196 196 196 360 360 52 52 52 120 120 120 120 1
 1 1 29 29 29 29 194 194 194 194 16 16 16 161 161 161 161 196 196 196
 182 52 52 52 52 120 120 120 120 120 1 29 29 29 29 29 194 194 194 194
 16 16 16 298 298 298 298 298 196 196 337 337 52 52 52 120 120 120 120 120
 120 29 29 29 29 29 318 318 318 318 318 21 21 298 298 298 298 298 71 71
 337 337 337 52 52 120 120 120 120 120 175 233 233 233 233 318 318 318 318 318
 318 21 21 298 298 298 298 71 71 71 71 337 337 94 94 33 33 33 93 93
 93 233 233 233 233 318 318 318 318 318 21 21 21 21 186 186 320 320 71 71
 71 71 94 94 94 33 33 33 93 93 93 93 233 233 233 318 318 318 318 318
 21 21 21 186 186 186 186 71 71 71 71 380 380 380 380 93 93 93 93 93
 93 93 233 233 233 318 318 318 318 318 378 22 22 186 186 186 186 71 71 71
 380 380 380 380 380 93 93 93 93 93 93 93 93 233 138 138 318 378 378 378
 378 22 22 186 186 186 186 186 380 380 380 380 380 380 380 417 93 93 93 93
 93 93 93 138 138 138 138 378 378 378 378 378 165 165 186 186 186 186 380 380
 380 380 380 380 380 417 93 93 93 93 93 93 93 138 138 138 138 378 378 378
 378 378 165 165 165 124 124 124 124 380 380 380 380 380 380 417 62 62 62 93
 93 93 138 138 138 138 138 378 378 378 20 20 165 165 165 124 124 124 124 380
 380 380 380 380 380 62 62 62 62 93 93 93 138 138 138 138 25 378 378 20
 20 20 404 404 404 154 154 154 124 380 380 380 380 380 380 62 62 62 62 62
 93 347 347 25 25 25 25 25 20 20 20 404 404 404 404 154 154 154 154 154
 380 37 37 405 353 353 62 62 62 176 176 347 347 347 25 25 25 25 25 361
 361 361 404 404 404 154 154 154 154 154 313 313 313 313 353 353 353 353 176 176
 176 347 347 347 25 25 25 25 361 361 361 147 147 147 147 154 154 154 154 313
 313 313 313 353 353 353 353 353 176 176 176 347 347 347 347 25 25 25 361 361
 361 361 147 147 147 147 154 154 154 313 313 313 313 313 353 353 353 353 176 176
 176 347 347 347 294 294 294 25 361 361 361 361 262 147 147 147 170 170 350 350
 313 37 313 255 353 353 353 353 176 112 176 342 342 294 294 294 294 294 361 361
 262 262 262 262 262 170 170 170 350 350 350 350 255 255 255 255 255 112 112 112
 112 342 342 342 294 294 294 294 294 361 262 262 262 262 262 170 170 170 350 350
 350 350 255 255 255 255 255 112 112 112 112 342 342 342 342 294 294 294 329 329
 262 262 262 262 213 170 170 170 170 350 350 350 255 255 255 255 255 112 112 112
 112 342 238 238 238 238 329 329 329 329 251 262 262 262 213 213 170 170 170 170
 279 279 279 255 255 226 226 226 301 301 301 238 238 238 238 238 329 329 329 329
 149 149 149 251 213 213 170 170 170 170 279 279 279 279 226 226 226 226 301 301
 301 238 238 238 238 238 329 329 329 329 149 149 149 304 304 304 304 170 170 279
 279 279 279 279 226 226 226 226 301 301 301 301 238 238 238 238 329 137 137 137
 149 149 149 304 304 304 304 304 304 279 279 279 230 230 230 226 226 301 301 301
 301 301 82 82 82 82 137 137 137 137 149 149 304 304 304 304 304 304 304 304
 279 230 230 230 230 230 226 301 301 301 301 82 82 82 82 82 137 137 137 392
 392 304 304 304 304 304 304 304 304 373 373 373 373 230 150 150 150 150 333 333
 333 82 82 82 82 82 137 137 137 392 392 304 304 304 304 304 304 304 304 373
 373 373 373 230 150 150 150 1 1 1 1 82 82 82 82 245 137 137 392 392
 194 16 304 304 304 304 304 304 196 373 373 373 373 230 150 150 150 1 1 1
 1 1 245 245 245 245 245 392 392 194 194 16 16 161 161 161 161 196 196 196
 373 373 373 207 150 120 120 1 1 1 1 1 245 245 245 245 245 194 194 194
 16 16 16 161 161 161 161 196 196 196 360 52 52 52 52 120 120 120 1 1
 1 1 29 29 29 245 194 194 194 194 16 16 16 161 161 161 161 196 196 196
 196 52 52 52 52 120 120 120 120 1 1 29 29 29 29 29 131 194 194 194
 16 16 16 161 161 161 161 196 196 196 337 337 52 52 52 120 120 120 120 175
 175 175 29 29 29 29 318 318 318 318 318 21 21 298 298 298 298 298 71 293
 337 337 337 52 52 200 120 120 175 175 175 175 233 233 233 318 318 318 318 318
 21 21 21 21 298 298 298 71 71 293 337 337 337 337 200 200 33 33 93 175
 175 233 233 233 233 318 318 318 318 318 21 21 21 21 186 186 186 71 71 293
 293 337 337 380 200 200 33 33 33 93 93 233 233 233 233 318 318 318 318 318
 21 21 21 186 186 186 186 71 71 293 293 380 380 380 380 200 93 93 93 93
 93 93 233 233 233 318 318 318 318 318 378 21 21 186 186 186 186 186 71 380
 380 380 380 380 380 380 93 93 93 93 93 93 93 233 233 138 318 318 318 378
 378 378 165 186 186 186 186 186 380 380 380 380 380 380 380 380 93 93 93 93
 93 93 93 138 138 138 138 378 378 378 378 378 165 165 165 186 186 124 380 380
 380 380 380 380 380 380 93 93 93 93 93 93 93 138 138 138 138 378 378 378
 20 20 165 165 165 165 124 124 124 380 380 380 380 380 380 380 62 62 62 93
 93 93 93 138 138 138 138 378 20 20 20 20 165 165 165 124 124 124 124 380
 380 380 380 380 380 62 62 62 62 93 93 93 93 138 138 138 25 20 20 20
 20 20 165 165 165 124 124 124 124 380 380 380 380 380 157 62 62 62 62 62
 93 347 347 25 25 25 25 25 20 20 20 147 147 147 147 147 154 154 124 154
 380 380 380 157 353 353 62 62 62 176 176 347 347 25 25 25 25 25 25 20
 361 147 147 147 147 147 154 154 154 313 313 313 313 353 353 353 353 353 176 176
 176 347 347 347 25 25 25 25 361 361 361 147 147 147 147 147 147 154 154 313
 313 313 313 353 353 353 353 353 176 176 176 347 347 347 25 25 25 25 361 361
 361 147 147 147 147 147 147 154 313 313 313 313 313 353 353 353 353 353 176 176
 176 347 347 294 294 294 294 25 361 361 361 147 147 147 147 147 147 170 350 313
 313 313 313 255 353 353 353 353 112 112 112 342 342 294 294 294 294 294 361 361
 262 262 262 262 147 170 170 170 350 350 350 177 255 255 255 255 255 112 112 112
 112 342 342 393 294 294 294 294 361 361 262 262 262 262 213 170 170 170 350 350
 350 255 255 255 255 255 255 112 112 112 112 342 342 393 393 294 294 294 329 136
 262 262 262 262 213 213 213 170 170 350 350 255 255 255 255 255 255 112 112 112
 112 238 238 238 238 238 329 329 329 329 149 262 262 213 213 213 213 170 170 170
 279 279 255 255 255 255 226 301 301 301 301 238 238 238 238 238 329 329 329 329
 149 149 149 149 213 213 213 170 170 170 279 279 279 279 226 226 226 301 301 301
 301 301 238 238 238 238 329 329 329 329 149 149 149 304 304 304 304 304 170 279
 279 279 279 230 230 226 226 301 301 301 301 301 238 238 238 238 329 329 329 329
 149 149 149 304 304 304 304 304 304 304 279 230 230 230 230 230 230 301 301 301
 301 372 82 82 82 82 375 375 375 375 149 149 304 304 304 304 304 304 304 304
 230 230 230 230 230 230 230 301 301 372 372 372 82 82 82 82 375 137 392 392
 392 392 304 304 304 304 304 304 304 304 373 373 230 230 230 150 150 150 301 372
 372 372 82 82 82 82 392 392 392 392 392 392 304 304 304 304 304 304 304 373
 373 373 373 230 150 150 150 1 1 1 1 372 245 245 245 245 392 392 392 392
 392 392 161 161 161 304 304 304 196 373 373 373 373 230 150 150 150 1 1 1
 1 245 245 245 245 245 104 392 392 392 392 16 161 161 161 161 161 196 196 196
 373 373 373 230 150 150 120 1 1 1 1 245 245 245 245 104 104 392 392 392
 16 16 161 161 161 161 161 196 196 196 196 52 52 52 52 120 120 1 1 1
 1 245 245 245 245 245 131 131 131 194 16 16 16 161 161 161 161 196 196 196
 196 52 52 52 52 120 120 120 175 175 175 29 29 29 29 245 131 131 131 131
 16 16 16 161 161 299 299 196 196 196 337 337 52 52 52 52 120 175 175 175
 175 175 29 29 29 29 131 131 131 131 21 21 21 299 299 299 299 299 293 293
 337 337 337 52 52 200 175 175 175 175 175 175 233 233 233 318 318 318 318 318
 21 21 21 21 299 299 299 293 293 293 293 337 337 337 200 200 200 175 175 175
 175 175 233 233 233 318 318 318 318 318 21 21 21 21 186 186 186 293 293 293
 293 293 337 200 200 200 200 33 93 93 93 233 233 233 233 318 318 318 318 318
 21 21 21 21 186 186 186 293 293 293 293 380 380 380 200 200 200 93 93 93
 93 93 233 233 233 318 318 318 318 318 187 21 21 186 186 186 186 186 293 293
 380 380 380 380 380 200 93 93 93 93 93 93 93 233 233 138 318 318 318 187
 187 165 165 165 186 186 186 186 380 380 380 380 380 380 380 380 93 93 93 93
 93 93 93 138 138 138 138 378 378 378 20 165 165 165 165 165 186 124 380 380
 380 380 380 380 380 380 93 93 93 93 93 93 93 138 138 138 138 138 20 20
 20 165 165 165 165 165 124 124 124 380 380 380 380 380 380 157 62 62 62 93
 93 93 138 138 138 138 138 20 20 20 20 165 165 165 165 165 124 124 124 380
 380 380 380 380 157 157 62 62 62 93 93 93 138 138 138 138 25 20 20 20
 20 20 165 165 165 165 124 124 124 380 380 380 380 157 157 157 62 62 62 62
 96 96 96 25 25 25 25 25 20 20 20 147 147 147 147 147 147 154 124 380
 380 380 157 157 157 157 157 62 62 176 176 96 347 25 25 25 25 25 20 20
 361 147 147 147 147 147 147 154 154 313 313 313 313 157 353 353 353 353 176 176
 176 347 347 25 25 25 25 25 361 361 361 147 147 147 147 147 147 147 147 313
 313 313 313 353 353 353 353 353 176 176 176 347 347 25 25 25 25 81 361 361
 361 147 147 147 147 147 147 147 366 313 313 313 313 313 353 353 353 353 176 176
 176 176 347 294 294 294 294 81 361 361 361 147 147 147 147 147 147 260 366 177
 177 177 313 313 353 353 353 353 112 112 176 393 393 393 294 294 294 294 361 361
 136 147 147 147 147 147 260 260 260 177 177 177 177 255 255 255 255 112 112 112
 112 393 393 393 393 294 294 294 136 136 136 136 262 147 213 213 260 260 260 177
 177 177 255 255 255 255 255 112 112 112 112 393 393 393 393 393 294 294 136 136
 136 262 262 213 213 213 213 260 260 177 177 177 255 255 255 255 287 112 112 112
 112 393 393 393 393 393 329 329 136 136 136 149 213 213 213 213 213 170 170 170
 177 179 179 179 255 287 287 287 112 301 301 393 393 238 238 238 329 329 329 329
 149 149 149 213 213 213 213 170 170 170 279 179 179 230 230 230 287 301 301 301
 301 301 238 238 238 238 329 329 329 329 149 149 149 304 304 304 304 304 170 279
 279 230 230 230 230 230 226 301 301 301 301 301 238 238 238 238 329 329 329 329
 149 149 149 304 304 304 304 304 8 8 8 230 230 230 230 230 275 275 275 372
 372 372 372 372 372 375 375 375 375 375 392 149 304 304 304 304 304 304 304 8
 230 230 230 230 230 230 275 275 275 372 372 372 372 372 372 375 375 375 375 375
 392 392 304 304 304 304 304 304 304 304 230 230 230 230 230 230 275 275 275 372
 372 372 372 372 372 375 375 392 392 392 392 392 392 304 304 304 304 304 304 373
 373 230 230 230 230 230 150 275 1 372 372 372 245 245 245 245 392 392 392 392
 392 392 392 161 161 304 304 196 196 196 373 230 230 230 230 230 150 1 1 1
 1 245 245 245 245 104 104 392 392 392 392 392 161 161 161 161 161 196 196 196
 196 230 230 230 230 230 1 1 1 1 1 245 245 245 245 104 104 392 392 392
 16 16 161 161 161 161 161 196 196 196 196 52 52 330 52 120 338 1 1 1
 1 245 245 245 245 104 131 131 131 392 16 16 161 161 161 161 161 196 196 196
 196 330 330 330 330 330 175 175 175 175 175 245 245 245 245 131 131 131 131 131
 16 16 161 161 299 299 299 299 196 196 337 337 52 330 52 200 175 175 175 175
 175 175 273 273 273 273 131 131 131 131 21 21 299 299 299 299 299 299 293 293
 293 293 337 17 200 200 200 175 175 175 175 175 273 273 273 273 318 131 318 318
 21 21 21 299 299 299 299 293 293 293 293 293 17 17 200 200 200 175 175 175
 175 175 273 273 273 273 318 318 318 318 21 21 21 21 299 299 299 293 293 293
 293 293 17 17 200 200 200 93 175 175 175 175 233 233 233 318 318 318 318 318
 187 21 21 21 186 186 186 293 293 293 293 293 17 17 200 200 200 93 93 93
 93 93 233 233 328 328 318 318 187 187 187 187 21 186 186 186 186 293 293 293
 293 380 380 380 380 200 93 93 93 93 93 93 93 233 328 328 328 187 187 187
 187 187 165 165 165 186 186 186 380 380 380 380 380 380 380 200 93 93 93 93
 93 93 285 285 328 138 138 187 187 187 20 165 165 165 165 346 346 346 380 380
 380 380 380 380 157 157 157 93 93 93 93 93 285 285 138 138 138 138 20 20
 20 165 165 165 165 165 124 124 124 380 380 380 380 157 157 157 157 62 93 93
 93 285 285 285 138 138 138 20 20 20 20 165 165 165 165 165 124 124 124 380
 380 380 157 157 157 157 157 157 62 292 96 96 285 285 138 25 25 20 20 20
 20 165 165 165 165 165 124 124 124 380 380 380 157 157 157 157 157 157 292 292
 96 96 96 96 25 25 25 25 20 20 20 147 147 147 147 147 147 124 257 257
 380 157 157 157 157 157 157 157 292 292 96 96 96 25 25 25 25 25 20 20
 147 147 147 147 147 147 147 147 257 257 313 313 157 157 157 157 157 351 292 292
 96 96 96 25 25 25 25 81 81 361 361 147 147 147 147 147 147 147 257 313
 313 313 313 157 353 353 353 280 176 292 176 96 96 25 25 25 81 81 81 361
 361 147 147 147 147 147 147 147 366 177 313 313 313 313 353 353 353 351 268 268
 268 268 393 294 294 294 81 81 81 361 136 147 147 147 147 147 366 366 366 177
 177 177 177 177 353 353 268 268 268 268 268 268 393 393 393 294 294 294 136 136
 136 136 147 147 147 366 366 260 366 177 177 177 177 177 179 255 268 268 268 268
 268 268 393 393 393 393 294 294 136 136 136 136 147 147 147 366 260 260 260 177
 177 177 177 179 179 255 287 268 268 268 268 268 393 393 393 393 294 136 136 136
 136 136 117 117 117 213 260 260 366 177 177 177 179 179 179 287 287 287 268 268
 268 393 393 393 393 393 329 136 136 136 136 136 117 117 213 213 213 366 366 8
 179 179 179 179 179 287 287 287 268 268 268 393 393 393 393 393 329 329 136 136
 149 348 149 117 117 213 213 8 8 8 8 179 179 179 179 287 287 287 287 301
 372 372 372 238 238 238 329 329 329 136 348 348 348 304 304 304 304 8 8 8
 8 230 230 230 230 230 275 275 275 301 372 372 372 372 238 375 375 375 375 375
 348 348 348 304 117 117 304 8 8 8 8 230 230 230 230 230 275 275 275 372
 372 372 372 372 372 375 375 375 375 375 348 348 348 304 304 304 304 304 8 8
 8 230 230 230 230 230 275 275 275 372 372 372 372 372 372 375 375 375 375 375
 392 392 304 304 304 304 304 304 8 8 8 230 230 230 230 230 275 275 275 372
 372 372 372 372 372 375 375 375 392 392 392 392 392 304 304 304 304 304 74 74
 230 230 230 230 230 230 275 275 275 372 372 372 372 245 245 245 392 392 392 392
 392 392 392 161 161 55 304 196 196 74 74 230 230 230 230 230 275 275 275 372
 372 245 245 245 245 245 392 392 392 392 392 392 161 161 161 161 161 196 196 196
 263 230 230 330 230 230 338 1 1 1 1 245 245 245 245 104 104 392 392 392
 392 392 161 161 161 161 161 196 263 263 263 263 330 330 330 330 338 338 338 1
 1 245 245 245 245 245 131 131 131 392 16 16 161 161 161 161 161 196 263 263
 263 330 330 330 330 330 338 338 338 175 175 245 245 273 273 273 131 131 131 131
 289 289 161 161 299 299 299 299 263 263 263 263 330 330 330 330 338 338 175 175
 175 273 273 273 273 273 131 131 131 131 289 322 299 299 299 299 299 299 293 293