# vtk DataFile Version 2.0
Data set from IO Version 6.4.197.9a0dee2
ASCII

DATASET RECTILINEAR_GRID
DIMENSIONS 31 31 31
X_COORDINATES 31 float
-3.250000 3.250000 9.750000 16.250000 22.750000 29.250000 35.750000 42.250000 48.750000 55.250000 61.750000 68.250000 74.750000 81.250000 87.750000 94.250000 100.750000 107.250000 113.750000 120.250000 126.750000 
133.250000 139.750000 146.250000 152.750000 159.250000 165.750000 172.250000 178.750000 185.250000 191.750000 
Y_COORDINATES 31 float
-3.250000 3.250000 9.750000 16.250000 22.750000 29.250000 35.750000 42.250000 48.750000 55.250000 61.750000 68.250000 74.750000 81.250000 87.750000 94.250000 100.750000 107.250000 113.750000 120.250000 126.750000 
133.250000 139.750000 146.250000 152.750000 159.250000 165.750000 172.250000 178.750000 185.250000 191.750000 
Z_COORDINATES 31 float
-3.250000 3.250000 9.750000 16.250000 22.750000 29.250000 35.750000 42.250000 48.750000 55.250000 61.750000 68.250000 74.750000 81.250000 87.750000 94.250000 100.750000 107.250000 113.750000 120.250000 126.750000 
133.250000 139.750000 146.250000 152.750000 159.250000 165.750000 172.250000 178.750000 185.250000 191.750000 
CELL_DATA 27000
SCALARS FeatureIds int 1
LOOKUP_TABLE default
 73 73 73 73 142 142 142 142 142 168 35 35 35 35 35 247 247 165 165 269
 269 269 296 296 296 296 49 49 49 73 73 73 73 147 147 142 142 142 168 168
 168 35 35 35 247 247 247 247 269 269 269 269 296 296 296 296 49 49 49 73
 73 73 147 147 147 147 142 142 168 168 168 168 35 247 247 247 247 109 269 269
 269 269 296 296 296 296 49 98 98 98 98 73 147 147 147 147 337 337 168 168
 168 168 168 247 109 109 109 109 109 269 305 305 305 305 296 296 283 98 98 98
 98 147 147 147 147 337 337 337 337 168 168 168 168 109 109 109 109 109 109 305
 305 305 305 305 305 283 283 283 98 98 98 147 147 147 263 337 337 337 337 337
 168 224 224 109 109 109 109 109 109 305 305 305 305 305 305 283 283 283 283 98
 277 277 277 135 263 263 337 337 337 337 224 224 224 349 349 349 349 382 382 305
 305 305 305 305 305 283 283 283 283 277 277 277 135 135 263 263 263 337 337 94
 224 224 224 349 349 349 349 382 382 382 40 40 40 40 40 283 283 283 277 277
 277 277 277 135 263 263 263 263 94 94 94 94 224 281 349 349 382 382 382 382
 40 40 40 40 40 158 89 89 277 277 277 277 371 371 371 263 263 94 94 94
 94 94 94 281 281 382 382 382 382 382 40 40 40 40 40 158 158 89 158 277
 277 371 371 371 371 371 94 94 94 94 94 94 94 220 220 220 382 382 382 382
 40 40 40 150 150 158 158 158 158 158 158 371 371 371 371 371 94 94 94 94
 94 94 326 326 220 220 382 382 382 382 40 40 150 150 150 158 158 158 158 158
 158 371 371 371 371 371 371 385 385 385 385 385 326 326 326 220 220 382 78 78
 78 78 150 150 150 158 158 158 158 158 158 246 246 371 371 371 385 385 385 385
 385 385 326 326 326 326 171 171 78 78 78 78 150 150 150 158 158 158 158 158
 158 246 246 246 371 385 385 385 385 385 385 385 326 326 326 171 171 171 78 78
 78 78 78 124 124 124 124 124 124 124 167 133 133 133 133 133 385 385 385 385
 385 385 385 326 326 171 171 171 171 78 78 78 78 124 124 124 124 124 124 124
 167 167 133 133 133 133 385 385 385 385 385 385 385 326 389 389 171 171 171 78
 78 78 78 34 34 124 124 124 124 124 167 167 167 133 133 133 385 385 385 385
 385 385 385 385 389 389 389 171 171 59 59 78 34 34 34 124 124 124 124 124
 167 167 167 133 133 133 51 51 385 385 385 385 385 389 389 389 389 59 59 59
 59 59 127 34 34 124 124 124 124 124 124 167 167 133 51 51 51 51 51 385
 385 385 385 389 389 389 389 59 59 59 59 127 127 127 240 240 124 124 124 124
 118 118 118 118 51 51 51 51 85 85 85 369 369 267 267 266 266 59 59 59
 127 127 127 127 240 240 124 124 124 124 118 118 118 352 352 51 51 85 85 85
 369 369 369 369 74 266 266 266 266 127 127 127 127 127 127 240 132 132 132 132
 118 118 352 352 352 352 85 85 85 369 369 369 369 369 74 74 266 266 266 266
 127 127 127 127 127 132 132 132 132 132 118 352 352 352 352 352 85 85 317 317
 369 369 369 369 74 74 266 266 266 266 127 127 127 127 127 132 132 132 132 132
 352 352 352 352 352 352 85 317 317 317 317 369 369 369 74 74 266 266 266 266
 266 376 378 378 378 253 132 132 132 151 151 65 352 352 352 352 317 317 317 317
 317 317 369 369 74 74 266 266 266 266 157 378 378 378 378 378 253 132 151 151
 360 65 334 334 334 334 141 141 317 317 317 317 317 35 35 165 165 165 165 157
 157 157 378 378 378 378 378 360 360 151 360 360 334 334 334 334 141 141 141 317
 317 317 35 35 35 165 165 165 165 157 157 157 378 378 378 378 378 360 360 360
 360 360 334 334 334 334 141 141 141 317 317 35 35 35 35 165 165 165 165 165
 157 157 378 378 378 378 49 49 49 360 73 73 73 334 334 142 142 141 141 317
 35 35 35 35 35 165 165 165 165 165 157 157 378 378 378 378 49 49 49 360
 73 73 73 73 211 211 211 142 142 168 35 35 35 35 247 247 247 165 269 269
 269 269 296 296 296 296 49 49 49 73 73 73 73 73 211 211 211 211 168 168
 168 35 35 35 247 247 247 269 269 269 269 269 296 296 296 296 49 49 49 73
 73 73 73 73 211 211 211 168 168 168 168 168 35 247 247 247 247 269 269 269
 269 269 296 296 296 296 329 98 98 73 73 73 73 147 147 147 337 337 168 168
 168 168 168 247 247 109 109 109 269 269 269 305 305 305 296 329 329 329 98 98
 98 147 147 147 147 337 337 337 168 168 168 168 168 109 109 109 109 109 109 305
 305 305 305 305 329 329 329 329 98 98 277 286 147 147 263 337 337 337 337 168
 168 168 224 109 109 109 109 109 109 305 305 305 305 305 329 329 329 283 283 277
 277 286 135 135 135 263 337 337 337 337 224 224 224 349 349 349 349 382 305 305
 305 305 305 305 329 329 329 283 283 277 277 277 135 135 135 263 263 322 94 94
 224 224 224 349 349 349 349 382 382 40 40 40 40 40 329 329 283 283 277 277
 277 277 135 135 263 263 263 94 94 94 94 224 224 349 349 349 349 382 382 40
 40 40 40 40 233 233 89 89 89 277 277 277 371 371 371 122 94 94 94 94
 94 94 94 94 281 382 382 382 382 40 40 40 40 40 233 233 89 89 89 277
 158 371 371 371 371 371 94 94 94 94 94 94 94 220 220 220 220 382 382 40
 40 40 40 40 158 158 158 158 158 158 158 371 371 371 371 371 94 94 94 94
 94 94 326 326 220 220 220 382 382 40 40 40 40 40 158 158 158 158 158 158
 158 371 371 371 371 371 385 385 385 385 385 326 326 326 326 220 220 382 78 78
 78 78 150 150 158 158 158 158 158 158 158 246 246 246 371 371 385 385 385 385
 385 385 326 326 326 326 171 171 78 78 78 78 78 150 158 158 158 158 158 158
 106 246 246 246 371 371 385 385 385 385 385 385 326 326 326 171 171 171 171 78
 78 78 78 88 124 124 124 124 124 124 106 106 106 106 133 385 385 385 385 385
 385 385 385 326 326 171 171 171 171 78 78 78 88 88 124 124 124 124 124 124
 167 167 167 133 133 133 385 385 385 385 385 385 385 326 389 389 171 171 171 171
 78 78 88 88 124 124 124 124 124 124 167 167 167 133 133 133 385 385 385 385
 385 385 385 385 389 389 389 171 171 59 59 88 88 88 124 124 124 124 124 124
 167 167 167 133 51 51 51 51 385 385 385 385 385 389 389 389 389 59 59 59
 59 59 88 88 240 240 124 124 124 124 124 167 167 51 51 51 51 51 51 385
 385 385 267 267 267 389 389 59 59 59 59 59 127 88 240 240 124 124 124 124
 118 118 118 118 51 51 51 51 51 85 373 267 267 267 267 267 59 59 59 59
 59 127 127 127 240 240 173 173 124 124 118 118 118 118 51 51 51 51 51 85
 369 369 267 267 267 267 266 266 59 59 127 127 127 127 173 173 173 173 173 118
 118 118 118 352 352 51 51 51 85 369 369 369 369 267 74 74 74 266 266 266
 127 127 127 127 173 173 173 132 132 132 65 65 352 352 352 352 92 92 317 317
 369 369 369 369 74 74 74 266 266 266 376 376 376 376 253 253 377 132 132 132
 65 65 65 352 352 92 92 317 317 317 317 317 369 369 74 74 74 266 266 266
 376 376 376 376 253 253 253 377 151 151 151 65 65 65 65 317 317 317 317 317
 317 317 317 317 74 74 266 266 266 266 376 376 376 376 253 253 253 253 151 151
 65 65 334 334 334 141 141 141 317 317 317 317 317 317 35 165 165 165 165 157
 157 157 376 376 376 253 253 360 151 151 65 65 334 80 334 141 141 141 141 317
 317 317 35 35 35 165 165 165 165 157 157 157 157 378 378 378 253 360 360 360
 360 65 334 334 334 141 141 141 141 317 317 35 35 35 35 165 165 165 165 165
 157 157 157 378 378 378 49 49 49 360 73 73 73 334 334 142 141 141 141 317
 35 35 35 35 35 247 165 165 165 269 269 157 157 378 378 49 49 49 49 49
 73 73 73 73 211 211 211 211 168 168 35 35 35 35 247 247 247 269 269 269
 269 269 296 296 296 296 49 49 49 73 73 73 73 73 211 211 211 211 168 168
 168 35 35 35 247 247 247 269 269 269 269 269 296 296 296 296 49 49 49 73
 73 73 73 73 211 211 211 211 168 168 168 168 35 247 247 247 247 269 269 269
 269 269 296 296 296 296 329 329 98 73 73 73 73 73 211 211 211 337 168 168
 168 168 168 247 247 247 247 269 269 269 269 269 305 305 329 329 329 329 329 161
 161 161 73 147 211 211 337 337 168 168 168 168 232 232 109 109 109 109 269 305
 305 305 305 305 329 329 329 329 329 161 286 286 286 286 135 337 337 322 168 168
 168 224 224 232 109 109 109 109 269 305 305 305 305 305 329 329 329 329 329 286
 286 286 286 135 135 263 322 322 322 94 224 224 224 349 349 349 349 349 305 305
 305 305 305 305 329 329 329 329 329 286 286 286 286 135 135 122 322 322 322 94
 94 224 224 349 349 349 349 382 382 40 40 40 40 40 329 329 233 233 277 286
 286 286 286 135 122 122 122 322 94 94 94 94 224 349 349 349 349 382 382 40
 40 40 40 40 233 233 233 233 89 277 286 286 371 371 122 122 122 94 94 94
 94 94 94 345 349 382 382 382 382 40 40 40 40 40 233 233 233 89 158 158
 158 371 371 371 371 122 122 94 94 94 94 94 345 345 345 220 220 382 382 40
 40 40 40 40 233 233 158 158 158 158 158 371 371 371 371 371 122 94 94 94
 94 94 345 345 345 220 220 382 382 271 271 40 40 40 158 158 158 158 158 158
 158 371 371 371 371 371 385 385 385 385 385 326 326 326 326 220 220 220 78 271
 271 271 40 40 158 158 158 158 158 158 158 246 246 246 371 371 385 385 385 385
 385 385 326 326 326 326 171 171 171 78 78 78 78 361 158 158 158 158 158 158
 106 106 246 246 371 385 385 385 385 385 385 385 326 326 326 171 171 171 171 78
 78 78 88 88 124 124 124 124 124 106 106 106 106 106 106 385 385 385 385 385
 385 385 385 326 326 171 171 171 171 171 78 88 88 88 124 124 124 124 124 106
 106 106 106 106 252 385 385 385 385 385 385 385 385 385 389 389 171 171 171 171
 78 88 88 88 88 124 124 124 124 124 167 167 167 167 252 252 385 385 385 385
 385 385 385 389 389 389 389 171 171 171 88 88 88 88 88 124 124 124 124 124
 167 167 167 167 252 51 51 51 385 385 385 385 267 389 389 389 389 59 59 59
 59 88 88 88 88 124 124 124 124 124 124 167 167 167 51 51 51 51 51 385
 385 267 267 267 267 267 389 59 59 59 59 59 88 88 240 240 173 173 124 124
 118 118 118 118 51 51 51 51 51 373 373 267 267 267 267 267 267 59 59 59
 59 59 127 173 173 173 173 173 173 173 118 118 118 118 51 51 51 51 373 373
 373 267 267 267 267 267 267 86 59 59 59 127 127 173 173 173 173 173 173 173
 118 118 118 352 352 51 92 92 92 373 373 267 267 267 267 74 74 266 266 59
 59 127 376 376 173 173 173 377 377 173 65 65 65 65 352 92 92 92 92 317
 317 317 267 267 74 74 74 266 266 266 376 376 376 376 253 253 377 377 377 65
 65 65 65 65 65 92 92 92 317 317 317 317 213 213 74 74 74 266 266 376
 376 376 376 376 253 253 253 377 377 65 65 65 65 65 65 65 92 317 317 317
 317 317 213 213 213 74 74 165 165 376 376 376 376 376 253 253 253 253 151 151
 65 65 65 334 334 334 141 141 317 317 317 317 213 213 213 165 165 165 165 165
 157 376 376 376 253 253 26 26 151 65 65 65 334 334 334 141 141 141 141 317
 317 317 35 35 35 165 165 165 165 165 157 157 384 384 384 26 26 26 26 65
 65 65 334 334 334 334 141 141 141 317 317 35 35 35 35 165 165 165 165 165
 157 157 157 384 384 26 49 49 49 65 73 73 73 334 211 211 211 141 141 317
 35 35 35 35 35 247 165 165 165 269 269 269 269 384 384 49 49 49 49 49
 44 44 44 211 211 211 211 211 211 83 83 83 35 35 247 247 269 269 269 269
 269 269 269 296 296 298 143 49 49 44 44 44 44 211 211 211 211 211 211 168
 83 83 35 35 247 247 269 269 269 269 269 269 269 296 296 143 143 143 44 44
 44 44 44 211 211 211 211 211 168 168 168 168 35 247 247 247 269 269 269 269
 269 269 269 296 296 329 143 143 44 44 161 44 44 211 211 211 211 211 168 168
 168 168 77 77 77 247 269 269 269 269 269 269 269 329 329 329 329 329 161 161
 161 161 161 211 211 211 211 322 168 168 168 232 232 232 77 109 109 269 269 269
 269 305 305 329 329 329 329 329 161 161 161 286 286 286 135 322 322 322 322 168
 232 232 232 232 232 109 109 11 269 305 305 305 305 329 329 329 329 329 161 161
 286 286 286 286 135 322 322 322 322 94 232 232 232 232 349 349 349 11 71 305
 305 305 305 329 329 329 329 329 161 286 286 286 286 286 122 122 322 322 322 94
 94 94 232 349 349 349 349 349 71 71 40 40 40 329 329 233 233 233 286 286
 286 286 286 286 122 122 122 322 322 94 94 94 224 349 349 349 349 382 40 40
 40 40 40 233 233 233 233 233 233 286 286 286 286 122 122 122 122 94 94 94
 94 94 94 345 345 349 382 382 382 40 40 40 40 233 233 233 233 233 158 295
 158 219 219 219 122 122 122 94 94 94 48 48 345 345 345 220 222 222 271 271
 271 40 40 233 233 233 233 158 158 158 158 219 219 219 219 122 122 48 48 48
 48 48 345 345 345 222 222 222 222 271 271 271 40 40 233 233 158 158 158 158
 158 219 219 219 219 219 385 385 48 48 48 48 345 345 345 220 222 222 271 271
 271 271 40 361 361 158 158 158 158 158 106 106 246 246 219 385 385 385 385 385
 385 385 326 326 326 326 171 171 171 78 78 271 361 361 361 361 158 158 158 158
 106 106 106 106 219 385 385 385 385 385 385 385 169 169 169 171 171 171 171 78
 78 88 361 361 361 361 124 124 158 106 106 106 106 106 252 252 385 385 385 385
 385 385 169 169 169 171 171 171 171 171 78 88 88 88 88 124 124 124 124 106
 106 106 106 106 252 252 252 385 385 385 385 385 169 169 169 171 171 171 171 171
 88 88 88 88 88 124 124 124 124 124 106 106 106 252 252 252 252 385 385 385
 385 385 169 169 389 389 389 171 171 88 88 88 88 88 88 124 124 124 124 124
 167 167 167 252 252 252 252 252 385 385 385 202 267 267 389 389 389 59 59 59
 180 88 88 88 88 124 124 124 124 124 173 173 167 252 252 252 51 51 51 373
 202 202 267 267 267 267 389 59 59 59 59 180 180 180 173 173 173 173 173 173
 173 118 118 118 51 51 51 51 373 373 373 267 267 267 267 267 86 86 59 59
 59 180 180 180 173 173 173 173 173 173 173 118 118 118 51 92 92 92 373 373
 373 267 267 267 267 267 86 86 86 59 59 180 180 173 173 173 173 173 173 173
 65 65 65 65 92 92 92 92 92 373 373 267 267 267 267 267 86 86 86 59
 376 376 376 376 173 173 377 377 377 173 65 65 65 65 65 92 92 92 92 92
 317 267 267 267 267 74 74 86 86 376 376 376 376 376 253 253 377 377 377 377
 65 65 65 65 65 92 92 92 92 317 317 303 213 213 213 74 74 86 266 376
 376 376 376 376 253 253 253 377 377 65 65 65 65 65 65 197 92 92 317 317
 317 303 213 213 213 213 74 372 165 376 376 376 376 376 253 253 253 253 65 65
 65 65 65 65 65 197 141 317 317 317 317 317 213 213 213 213 165 165 165 376
 376 376 376 376 253 253 26 26 300 65 65 65 65 65 65 141 141 141 317 317
 317 83 83 35 35 165 165 165 165 165 376 376 384 384 384 253 26 26 300 300
 300 65 65 65 334 211 141 141 141 83 83 83 83 35 35 165 165 165 165 269
 269 269 384 384 384 253 26 26 300 300 44 44 44 211 211 211 211 211 141 83
 83 83 35 35 35 247 165 269 269 269 269 269 269 384 384 253 49 49 300 300
 44 44 44 44 211 211 211 211 83 83 83 83 83 83 247 247 269 269 269 269
 269 269 269 269 298 298 143 143 143 44 44 44 44 44 211 211 211 211 83 83
 83 83 83 83 247 247 269 269 269 269 269 269 269 269 298 298 143 143 143 44
 44 44 44 44 211 211 211 211 168 83 83 83 77 77 77 77 269 269 269 269
 269 269 269 269 298 298 143 143 143 44 161 44 44 44 211 211 211 211 168 168
 168 232 77 77 77 77 269 269 269 269 269 269 269 329 329 329 329 329 161 161
 161 161 161 161 211 211 211 322 168 232 232 232 232 77 77 11 11 11 269 269
 269 269 305 329 329 329 329 329 161 161 161 161 286 286 286 111 322 322 322 232
 232 232 232 232 232 11 11 11 11 71 305 305 305 329 329 329 329 329 161 161
 286 286 286 286 286 322 322 322 322 322 232 232 232 232 232 11 11 11 71 71
 71 305 305 329 329 329 329 329 161 161 286 286 286 286 286 122 322 322 322 94
 14 14 232 232 232 11 11 11 71 71 71 40 40 329 329 233 233 233 295 286
 286 286 286 286 122 122 122 322 322 94 94 14 14 232 232 349 11 71 71 71
 71 40 40 233 233 233 233 233 295 295 295 286 219 219 122 122 122 48 48 48
 48 48 345 345 345 222 222 222 222 71 40 40 40 233 233 233 233 233 295 295
 295 219 219 219 219 122 122 48 48 48 48 48 345 345 345 222 222 222 222 271
 271 40 40 291 233 233 233 158 295 295 219 219 219 219 219 219 219 48 48 48
 48 48 345 345 345 222 222 222 222 271 271 271 40 291 291 233 158 158 158 295
 255 255 219 219 219 219 219 48 48 48 48 48 345 345 345 222 222 222 222 271
 271 271 361 361 361 361 158 158 158 158 255 255 255 219 219 219 385 385 48 48
 48 48 169 169 169 169 222 171 222 271 271 361 361 361 361 361 158 158 158 153
 106 106 106 106 219 219 385 385 198 198 198 169 169 169 169 169 354 354 354 354
 114 361 361 361 361 361 124 153 153 153 106 106 106 106 252 252 252 385 198 198
 198 169 169 169 169 169 354 354 354 354 88 88 88 361 361 361 124 124 153 153
 106 106 106 252 252 252 252 252 385 385 385 169 169 169 169 169 354 354 354 354
 88 88 88 88 88 124 124 124 124 153 106 106 106 252 252 252 252 252 385 385
 385 169 169 169 169 169 354 354 354 180 180 88 88 88 88 124 124 124 124 124
 173 173 252 252 252 252 252 252 252 202 202 202 202 169 169 204 204 86 180 180
 180 180 180 88 88 173 173 173 173 173 173 173 17 252 252 252 252 252 373 202
 202 202 202 267 267 267 86 86 86 180 180 180 180 180 173 173 173 173 173 173
 173 173 17 17 252 252 51 51 373 373 202 202 267 267 267 267 86 86 86 86
 180 180 180 180 173 173 173 173 173 173 173 173 118 17 252 92 92 92 373 373
 373 267 267 267 267 267 86 86 86 86 180 180 180 180 173 173 173 173 173 173
 65 65 65 65 92 92 92 92 92 373 373 267 267 267 267 267 86 86 86 86
 180 180 376 367 367 173 173 377 173 173 65 65 65 65 65 92 92 92 92 92
 303 303 267 267 267 74 86 86 86 4 376 376 376 376 253 253 377 377 377 65
 65 65 65 65 197 197 92 92 92 303 303 303 303 213 213 213 86 86 86 376
 376 376 376 376 253 253 253 377 377 65 65 65 65 65 197 197 197 92 92 303
 303 303 303 213 213 213 372 372 372 376 376 376 376 376 253 253 253 253 300 65
 65 65 65 65 197 197 197 197 317 317 303 303 303 213 213 213 372 372 372 372
 376 376 376 376 253 253 253 253 300 300 300 65 65 65 197 197 197 141 317 83
 83 83 83 83 213 372 372 372 372 372 269 376 384 384 384 253 253 300 300 300
 300 300 65 65 178 211 211 141 83 83 83 83 83 83 83 372 372 372 372 269
 269 269 384 384 384 253 26 300 300 300 44 44 44 44 211 211 211 211 83 83
 83 83 83 83 35 372 372 269 269 269 269 269 269 384 384 253 49 300 300 300
 44 44 44 44 211 211 211 211 83 83 83 83 83 83 319 319 269 269 269 269
 269 269 269 287 298 298 143 143 302 44 44 44 44 44 211 211 211 211 83 83
 83 83 83 83 319 319 269 269 269 269 269 269 269 287 298 298 143 143 302 44
 44 44 44 44 211 211 211 211 83 83 83 83 83 77 77 77 269 269 269 269
 269 269 269 287 298 298 143 143 302 44 161 44 44 44 211 211 211 211 232 232
 232 232 232 77 77 77 11 11 269 269 269 269 269 329 329 329 329 143 161 161
 161 161 161 161 111 111 111 111 232 232 232 232 232 77 77 11 11 11 11 269
 269 244 244 329 329 329 329 329 161 161 161 161 324 324 111 111 111 322 322 232
 232 232 232 232 232 11 11 11 11 71 71 244 244 329 329 329 329 329 161 161
 161 286 286 286 111 111 322 322 322 232 232 232 232 232 232 11 11 11 71 71
 71 244 244 329 329 329 329 161 161 161 286 286 286 286 374 374 374 322 322 14
 14 14 14 232 232 11 11 11 71 71 71 71 291 291 329 233 233 295 295 295
 295 286 286 286 374 374 374 374 322 94 14 14 14 232 232 11 11 11 71 71
 71 71 291 291 291 291 233 233 295 295 295 219 219 219 219 122 374 48 48 48
 48 48 14 345 222 222 222 222 71 71 71 40 291 291 291 291 291 295 295 295
 295 219 219 219 219 219 219 48 48 48 48 48 345 345 345 222 222 222 222 271
 271 146 291 291 291 291 291 295 295 295 219 219 219 219 219 219 219 48 48 48
 48 48 345 345 345 222 222 222 222 271 146 146 146 291 291 291 291 295 295 295
 255 255 219 219 219 219 219 48 48 48 48 48 345 345 345 222 222 222 222 271
 271 146 361 361 361 361 361 16 16 16 255 255 255 219 219 219 219 48 48 48
 48 48 169 169 169 169 174 174 174 271 114 114 361 361 361 361 361 16 16 16
 255 255 255 219 219 219 252 385 198 198 198 285 169 169 169 169 354 354 354 354
 114 114 361 361 361 361 361 153 153 153 153 106 106 106 252 252 252 252 198 198
 198 285 169 169 169 169 354 354 354 354 114 114 114 361 361 361 124 38 153 153
 153 106 106 252 252 252 252 252 198 198 285 285 169 169 169 169 354 354 354 354
 114 114 88 88 88 124 38 38 153 153 153 106 252 252 252 252 252 252 252 198
 202 202 169 169 169 169 354 354 354 180 180 180 88 88 88 124 124 38 124 153
 173 17 17 252 252 252 252 252 252 202 202 202 202 202 204 204 204 204 61 180
 180 180 180 180 180 173 173 173 173 173 173 17 17 17 252 252 252 252 202 202
 202 202 202 202 204 204 204 86 86 61 180 180 180 180 173 173 173 173 173 173
 173 17 17 17 17 265 265 265 373 202 202 202 202 267 204 204 86 86 86 86
 180 180 180 180 173 173 173 173 173 173 258 258 258 17 265 265 265 92 373 373
 202 202 267 267 267 86 86 86 86 86 180 180 180 367 367 173 173 173 173 173
 258 258 258 258 265 265 265 92 92 373 303 267 267 267 267 86 86 86 86 4
 4 4 4 367 367 367 367 173 173 173 258 258 258 65 197 197 265 92 92 92
 303 303 303 191 191 86 86 86 86 4 4 4 4 367 367 367 367 377 377 258
 65 65 65 65 197 197 197 92 92 303 303 303 303 191 191 191 86 86 86 4
 4 4 376 376 367 367 367 367 377 65 65 65 65 197 197 197 197 197 92 303
 303 303 303 303 191 372 372 372 372 4 4 376 376 376 376 253 253 253 300 300
 300 65 65 178 197 197 197 197 197 303 303 303 303 303 213 372 372 372 372 241
 241 241 376 376 253 253 253 300 300 300 300 300 178 178 178 197 197 197 83 83
 83 83 83 83 83 372 372 372 372 241 241 241 241 241 5 5 253 300 300 300
 300 300 178 178 178 178 178 197 83 83 83 83 83 83 83 372 372 372 372 269
 241 241 241 241 384 5 300 300 300 300 44 44 44 178 178 178 178 83 83 83
 83 83 83 83 83 372 372 372 269 269 269 269 241 287 384 5 300 300 300 300
 44 44 44 44 187 187 187 187 83 83 83 83 83 83 319 319 319 269 269 269
 269 287 287 287 287 298 302 302 302 44 44 44 44 44 187 187 187 187 83 83
 36 36 83 83 319 319 319 269 269 269 269 287 287 287 287 298 302 302 302 44
 44 44 44 44 187 187 187 187 36 36 36 36 148 148 319 319 319 269 269 269
 269 287 287 287 287 298 302 302 302 44 161 44 44 44 187 187 187 187 36 232
 232 232 148 148 77 11 11 11 269 269 269 237 237 287 128 128 128 302 302 161
 161 324 324 324 111 111 111 111 121 232 232 232 232 232 11 11 11 11 11 244
 244 244 244 115 128 128 128 302 161 161 161 324 324 324 111 111 111 111 121 121
 232 232 232 232 11 11 11 11 11 244 244 244 244 115 128 128 128 128 161 161
 324 324 324 324 111 111 111 374 121 121 232 232 232 232 11 11 11 11 11 71
 244 244 244 115 128 128 128 128 161 161 324 324 324 324 374 374 374 374 121 121
 121 14 232 232 11 11 11 11 71 71 71 244 244 115 128 128 128 128 295 295
 295 286 286 374 374 374 374 374 121 121 121 14 14 232 11 11 11 11 71 71
 71 71 309 291 291 291 291 291 295 295 295 219 219 219 219 374 374 374 48 48
 48 48 14 232 222 222 222 222 222 71 71 309 309 291 291 291 291 295 295 295
 295 219 219 219 219 131 131 48 48 48 48 48 48 345 222 222 222 222 222 222
 146 146 146 291 291 291 291 295 295 295 16 219 219 219 219 131 131 48 48 48
 48 48 48 192 222 222 222 222 222 222 146 146 146 291 291 291 291 16 16 16
 16 255 219 219 219 219 131 48 48 48 48 48 48 169 222 222 222 174 174 174
 146 146 146 361 361 361 291 16 16 16 16 255 255 219 219 219 290 290 48 48
 48 285 285 169 169 174 174 174 174 174 114 114 361 361 361 361 361 16 16 16
 16 255 255 219 219 219 252 290 198 198 285 285 285 169 169 174 174 174 354 114
 114 114 114 361 361 361 38 38 16 16 153 106 106 252 252 252 252 252 198 285
 285 285 285 169 169 169 354 354 354 114 114 114 114 114 361 38 38 38 38 153
 153 106 252 252 252 252 252 252 198 285 285 285 285 169 169 169 354 354 354 114
 114 114 114 114 361 38 38 38 38 153 153 17 252 252 252 252 252 252 252 285
 285 285 169 169 204 204 204 228 61 61 114 114 114 114 38 38 38 38 38 38
 17 17 17 17 252 252 252 252 252 202 202 202 202 204 204 204 204 204 61 61
 180 180 180 180 180 173 173 173 173 173 17 17 17 17 17 252 252 252 252 202
 202 202 202 204 204 204 204 204 61 61 180 180 180 180 180 173 173 173 173 173
 17 17 17 17 17 265 265 265 265 202 202 202 202 204 204 204 204 86 86 61
 180 180 180 180 367 173 173 173 173 173 258 258 258 17 265 265 265 265 265 202
 202 202 191 191 204 204 86 86 86 4 4 4 4 367 367 367 367 173 173 173
 258 258 258 258 265 265 265 265 265 265 191 191 191 191 191 191 86 86 86 4
 4 4 4 367 367 367 367 367 367 258 258 258 258 258 265 265 265 265 265 303
 303 303 191 191 191 191 76 76 76 4 4 4 4 367 367 367 367 367 367 258
 258 258 258 258 197 197 197 265 265 303 303 303 303 191 191 191 76 76 76 4
 4 4 4 367 367 367 367 367 367 258 258 258 178 178 197 197 197 197 197 303
 303 303 303 303 191 191 372 372 372 4 4 4 4 376 367 367 367 367 300 300
 300 178 178 178 178 197 197 197 197 303 303 303 303 303 191 372 372 372 372 241
 241 241 241 241 5 5 5 300 300 300 300 178 178 178 178 178 178 178 297 83
 83 83 83 83 83 372 372 372 372 241 241 241 241 241 5 5 5 300 300 300
 300 178 178 178 178 178 178 297 83 83 83 83 83 83 83 372 372 372 372 241
 241 241 241 241 5 5 5 300 300 300 44 44 178 178 178 178 178 297 83 83
 83 83 83 83 83 319 372 372 372 269 241 241 241 287 287 5 302 302 300 300
 44 44 44 44 187 187 187 297 297 36 36 36 83 83 319 319 319 319 269 269
 269 287 287 287 287 287 302 302 302 353 44 44 44 44 187 187 187 187 187 36
 36 36 36 319 319 319 319 319 269 269 237 287 287 287 287 287 302 302 302 302
 44 44 44 44 187 187 187 187 36 36 36 36 148 148 319 319 319 319 269 237
 237 237 287 287 287 287 302 302 302 302 324 324 324 324 187 187 187 187 36 36
 36 232 148 148 148 11 11 11 11 237 237 237 237 287 287 128 128 302 302 302
 324 324 324 324 111 111 111 111 121 121 232 232 232 148 148 11 11 11 11 237
 244 244 244 115 128 128 128 128 161 161 324 324 324 324 111 111 111 111 121 121
 121 232 232 232 11 11 11 11 11 244 244 244 244 115 128 128 128 128 161 324
 324 324 324 324 111 111 111 121 121 121 121 232 232 232 11 11 11 11 11 244
 244 244 244 115 128 128 128 128 161 324 324 324 324 324 374 374 374 374 121 121
 121 121 232 232 11 11 11 11 11 71 71 244 309 309 309 128 128 370 324 324
 370 370 194 194 374 374 374 374 121 121 121 121 121 181 181 181 181 11 71 71
 71 309 309 309 309 291 291 370 370 370 370 370 194 194 194 374 374 374 121 121
 121 121 121 181 181 181 181 222 222 71 309 309 309 309 291 291 291 370 370 370
 370 370 219 219 131 131 131 48 48 48 48 48 192 181 181 181 222 222 222 146
 146 146 146 309 291 291 291 370 370 370 16 219 219 219 131 131 131 48 48 48
 48 48 192 192 192 222 222 222 174 174 146 146 146 309 291 291 291 16 16 16
 16 16 219 219 131 131 131 290 290 48 48 192 192 192 192 192 174 174 174 174
 146 146 146 361 361 361 291 16 16 16 16 16 219 219 219 290 290 290 290 290
 285 285 192 192 192 174 174 174 174 174 114 114 114 361 361 361 38 16 16 16
 16 16 255 219 219 290 290 290 290 285 285 285 285 192 192 174 174 174 174 114
 114 114 114 114 361 38 38 38 16 16 16 16 137 137 252 252 290 290 290 285
 285 285 285 285 169 169 174 174 228 114 114 114 114 114 361 38 38 38 38 16
 153 106 252 252 252 252 252 252 290 285 285 285 285 285 169 228 228 228 228 114
 114 114 114 114 38 38 38 38 38 38 341 17 17 252 252 252 252 252 252 285
 285 285 285 285 204 204 228 228 228 228 114 114 114 114 38 38 38 38 38 38
 17 17 17 17 17 252 252 252 172 172 202 202 202 204 204 204 204 228 61 61
 61 180 180 180 38 38 38 38 38 38 17 17 17 17 17 252 252 252 172 172
 202 202 202 204 204 204 204 204 61 61 61 180 180 180 367 91 91 91 173 173
 17 17 17 17 17 265 265 265 172 172 202 202 202 204 204 204 204 204 61 61
 61 180 180 180 367 91 91 91 91 91 258 258 258 17 265 265 265 265 265 265
 202 191 191 191 204 204 76 76 76 61 4 4 4 367 367 367 91 91 91 258
 258 258 258 258 265 265 265 265 265 265 191 191 191 191 191 76 76 76 76 4
 4 4 4 367 367 367 367 367 367 258 258 258 258 258 265 265 265 265 265 159
 159 191 191 191 191 191 76 76 76 4 4 4 4 367 367 367 367 367 367 258
 258 258 258 258 197 265 265 101 159 159 159 159 191 191 191 191 76 76 76 4
 4 4 4 367 367 367 367 367 367 258 258 258 178 178 178 178 178 101 159 159
 159 159 303 191 191 191 76 76 76 4 4 4 4 4 367 367 367 367 367 258
 300 178 178 178 178 178 178 297 159 159 159 159 303 303 191 191 372 372 372 241
 241 241 241 241 5 5 5 300 300 300 300 178 178 178 178 178 178 297 297 297
 83 83 347 347 226 226 372 372 372 241 241 241 241 241 5 5 5 5 300 300
 300 178 178 178 178 178 297 297 297 297 83 83 347 347 226 319 372 372 372 241
 241 241 241 241 5 5 5 5 300 300 353 178 178 178 178 178 297 297 297 297
 83 347 347 347 319 319 319 372 372 241 241 241 241 287 287 5 302 302 353 353
 353 44 366 366 366 187 187 297 297 297 347 347 347 347 319 319 319 319 276 276
 276 276 287 287 287 302 302 302 302 353 44 44 366 366 187 187 187 187 297 36
 36 36 347 347 319 319 319 319 237 237 237 237 287 287 287 302 302 302 302 302
 44 44 366 366 187 187 187 187 36 36 36 36 148 148 319 319 319 319 237 237
 237 237 237 287 287 287 302 302 302 302 324 324 324 366 187 187 187 187 121 121
 36 36 148 148 148 11 11 11 237 237 237 237 237 237 237 128 302 302 350 350
 324 324 324 199 111 111 111 121 121 121 121 121 148 148 148 11 11 11 237 237
 237 237 237 237 128 128 128 350 350 350 324 324 324 199 111 111 111 121 121 121
 121 121 232 232 11 11 11 11 11 237 244 244 244 115 128 128 128 128 350 324
 324 324 324 199 111 111 111 121 121 121 121 121 121 232 30 30 11 11 11 237
 244 244 244 115 128 128 128 117 117 324 324 324 324 194 194 374 374 121 121 121
 121 121 121 232 30 30 30 11 11 71 244 309 309 309 309 309 128 117 117 117
 370 194 194 194 194 374 374 121 121 121 121 121 121 181 181 181 181 181 250 250
 309 309 309 309 309 309 309 370 370 370 370 194 194 194 194 194 374 121 121 121
 121 121 121 181 181 181 181 181 181 250 309 309 309 309 309 309 291 370 370 370
 370 359 194 194 194 131 131 121 121 121 121 121 192 181 181 181 181 181 181 146
 146 146 309 309 309 309 291 370 370 370 359 359 359 194 131 131 131 290 290 48
 48 192 192 192 192 181 181 174 174 174 146 146 146 309 309 309 291 370 370 370