# vtk DataFile Version 2.0
Data set from IO Version 6.4.197.9a0dee2
ASCII

DATASET RECTILINEAR_GRID
DIMENSIONS 31 31 31
X_COORDINATES 31 float
-3.250000 3.250000 9.750000 16.250000 22.750000 29.250000 35.750000 42.250000 48.750000 55.250000 61.750000 68.250000 74.750000 81.250000 87.750000 94.250000 100.750000 107.250000 113.750000 120.250000 126.750000 
133.250000 139.750000 146.250000 152.750000 159.250000 165.750000 172.250000 178.750000 185.250000 191.750000 
Y_COORDINATES 31 float
-3.250000 3.250000 9.750000 16.250000 22.750000 29.250000 35.750000 42.250000 48.750000 55.250000 61.750000 68.250000 74.750000 81.250000 87.750000 94.250000 100.750000 107.250000 113.750000 120.250000 126.750000 
133.250000 139.750000 146.250000 152.750000 159.250000 165.750000 172.250000 178.750000 185.250000 191.750000 
Z_COORDINATES 31 float
-3.250000 3.250000 9.750000 16.250000 22.750000 29.250000 35.750000 42.250000 48.750000 55.250000 61.750000 68.250000 74.750000 81.250000 87.750000 94.250000 100.750000 107.250000 113.750000 120.250000 126.750000 
133.250000 139.750000 146.250000 152.750000 159.250000 165.750000 172.250000 178.750000 185.250000 191.750000 
CELL_DATA 27000
SCALARS FeatureIds int 1
LOOKUP_TABLE default
 93 236 52 52 136 17 17 17 368 368 368 369 369 306 306 188 188 188 206 206
 206 206 206 206 206 206 93 93 93 93 93 93 52 136 136 136 17 17 368 368
 368 100 100 306 306 306 306 306 206 206 206 206 206 206 206 206 93 93 93 93
 93 93 52 136 136 136 136 17 368 368 100 100 100 306 306 306 306 206 206 206
 206 206 206 206 206 206 238 238 93 93 93 93 52 136 136 136 136 41 41 100
 100 100 100 100 306 80 80 80 206 206 206 206 206 206 206 238 238 238 238 93
 84 298 298 298 298 141 141 41 41 41 100 100 100 100 80 80 80 80 113 113
 113 206 206 206 206 238 238 238 238 93 84 298 298 298 298 141 141 41 41 41
 41 100 100 80 80 80 80 80 113 113 113 206 206 206 23 23 23 23 23 23
 84 298 298 298 298 141 141 41 41 41 41 41 67 67 80 80 80 166 113 113
 113 113 26 26 23 23 23 23 23 23 321 321 321 321 298 217 217 217 217 41
 41 67 67 67 67 67 166 166 166 166 113 26 26 26 26 23 23 23 23 23
 321 321 321 321 321 217 217 217 217 217 217 67 67 67 67 67 67 166 221 221
 221 191 191 191 191 245 245 245 23 23 321 321 321 321 321 217 217 217 217 217
 217 67 67 67 67 67 67 221 221 221 221 191 191 191 191 245 245 245 176 176
 176 321 321 321 76 76 217 217 217 217 217 67 67 67 67 67 67 221 221 221
 221 221 191 191 191 176 176 176 176 176 176 176 321 76 76 76 76 217 217 217
 217 67 67 67 67 67 221 221 221 221 221 221 221 191 176 176 176 176 176 176
 176 176 324 324 76 76 76 217 217 217 217 67 67 67 43 43 43 221 221 221
 221 221 221 176 176 176 176 176 176 176 282 282 324 324 324 324 105 217 217 10
 10 10 291 291 43 43 43 221 221 221 221 221 221 220 176 176 176 176 176 176
 282 282 324 324 324 324 105 105 299 299 10 10 291 291 291 43 43 221 221 221
 221 221 220 220 220 220 218 218 218 218 282 282 282 324 324 105 105 105 299 299
 10 10 291 291 291 291 291 199 221 355 355 355 355 220 220 220 218 218 218 218
 282 282 282 35 35 35 35 35 299 299 10 10 291 291 291 291 291 98 98 355
 355 355 355 355 220 220 218 218 218 218 74 282 282 35 35 35 35 35 299 299
 10 10 291 291 291 291 291 98 98 98 355 355 355 355 355 220 218 218 218 74
 74 74 35 35 35 35 35 35 342 66 66 66 66 327 291 291 98 98 98 98
 355 355 355 355 355 185 83 83 74 74 74 74 165 165 165 342 342 342 342 342
 66 66 66 327 327 327 98 98 98 98 98 355 355 355 355 83 83 83 74 74
 74 165 165 165 165 342 342 342 342 342 230 230 230 327 327 247 247 98 229 229
 229 229 355 355 355 83 83 83 74 74 74 165 165 165 165 342 342 342 342 342
 230 230 230 230 230 247 247 247 229 229 229 229 229 78 78 198 83 83 74 74
 228 228 165 165 165 342 342 342 342 342 230 230 230 230 230 138 138 138 138 229
 229 229 78 78 78 198 198 198 302 302 228 228 228 165 165 342 342 331 342 342
 230 230 230 230 138 138 138 138 138 229 229 229 78 78 78 198 198 198 302 302
 228 228 228 165 165 342 331 331 180 180 180 180 180 71 138 138 138 138 138 138
 14 78 78 78 78 198 198 198 302 302 302 302 73 73 73 73 331 180 180 180
 180 180 180 71 71 138 138 138 138 14 14 78 78 78 78 198 198 77 77 302
 236 236 73 73 73 73 73 180 180 180 180 180 180 71 71 71 138 138 213 213
 213 78 78 78 332 332 332 77 302 302 236 236 236 73 73 17 17 17 180 180
 180 180 71 71 71 71 71 213 213 213 213 78 78 78 332 332 332 77 302 302
 236 236 236 236 17 17 17 17 180 180 180 369 369 71 71 188 188 213 213 213
 213 206 206 301 332 332 332 332 148 148 148 236 236 52 17 17 17 17 17 180
 369 369 369 306 188 188 188 240 213 206 206 206 206 301 301 332 332 148 148 148
 93 93 136 136 136 136 17 17 368 368 368 369 369 306 188 188 188 188 206 206
 206 206 206 206 206 278 278 93 93 93 93 93 136 136 136 136 136 368 368 368
 368 369 100 306 306 188 188 188 206 206 206 206 206 206 206 278 278 93 93 93
 93 93 136 136 136 136 136 368 368 368 368 100 100 100 306 306 188 206 206 206
 206 206 206 206 206 206 238 93 93 93 93 93 298 298 136 136 136 368 368 100
 100 100 100 100 306 80 80 360 206 206 206 206 206 206 206 206 238 84 84 93
 84 298 298 298 298 298 298 41 41 41 100 100 100 100 80 80 80 80 113 113
 113 206 206 206 206 238 238 84 84 84 84 298 298 298 298 298 7 41 41 41
 41 100 100 100 80 80 166 166 113 113 113 206 206 206 23 23 23 84 84 84
 84 298 298 298 298 298 7 7 7 41 41 41 67 67 67 166 166 166 166 113
 113 113 26 26 23 23 23 23 23 84 321 321 321 321 321 321 7 7 7 7
 41 67 67 67 67 67 166 166 166 166 166 191 26 26 26 245 245 245 23 23
 321 321 321 321 321 321 217 7 217 217 67 67 67 67 67 67 166 166 166 221
 221 191 191 191 191 245 245 245 245 23 321 321 321 321 321 76 217 217 217 217
 67 67 67 67 67 67 67 166 221 221 221 191 191 191 191 245 245 245 245 176
 321 321 321 321 76 76 76 217 217 217 67 67 67 67 67 67 67 221 221 221
 221 221 191 191 191 176 176 176 176 176 176 321 321 76 76 76 76 217 217 217
 67 67 67 67 67 67 221 221 221 221 221 221 221 191 176 176 176 176 176 176
 176 321 324 76 76 76 76 76 217 217 67 67 67 67 67 67 221 221 221 221
 221 221 221 39 39 39 176 176 176 176 282 282 324 324 324 76 105 105 10 10
 10 10 10 291 291 43 43 221 221 69 69 221 221 39 39 39 39 176 176 176
 282 282 324 324 324 105 105 105 10 10 10 10 10 291 291 291 43 221 221 69
 221 221 355 39 39 39 218 218 218 218 282 282 324 324 105 105 105 105 10 10
 10 10 291 291 291 291 291 199 221 355 355 355 355 220 220 185 218 218 218 218
 282 282 282 105 105 105 105 105 10 10 10 10 291 291 291 291 291 98 349 349
 355 355 355 355 185 185 185 218 218 218 74 282 371 371 35 35 35 35 342 10
 10 10 291 291 291 291 98 98 98 349 349 355 355 355 185 185 185 185 218 74
 74 371 371 371 371 35 35 342 342 66 66 66 66 327 291 291 98 98 98 98
 98 355 355 355 185 185 185 83 83 74 74 371 371 371 371 342 342 342 342 66
 66 66 66 327 327 98 98 98 98 98 98 355 355 355 185 185 83 83 83 74
 74 165 165 165 371 342 342 342 342 342 66 66 66 327 258 247 247 247 229 229
 229 229 30 30 185 83 83 83 83 74 90 165 165 165 165 342 342 342 342 342
 230 230 230 230 247 247 247 247 229 229 229 229 30 30 265 265 265 90 90 90
 228 228 228 165 165 342 342 342 342 342 230 230 230 230 247 247 247 247 229 229
 229 229 229 78 265 265 265 265 302 302 228 177 228 165 165 342 342 342 342 342
 230 230 230 230 138 138 138 138 138 229 229 229 78 78 265 265 265 302 302 302
 302 228 228 165 73 342 342 342 180 180 180 180 180 71 138 138 138 138 14 14
 14 14 78 78 78 265 198 198 302 302 302 302 302 73 73 73 342 180 180 180
 180 180 180 71 71 71 138 14 14 14 14 14 78 78 78 198 198 233 302 302
 302 302 73 73 73 73 180 180 180 180 180 180 180 71 71 71 14 14 14 14
 14 14 78 78 78 332 233 233 302 302 302 236 236 73 17 17 17 180 180 180
 180 180 71 71 71 71 71 14 14 14 14 14 78 78 332 332 332 302 302 302
 148 236 236 17 17 17 17 17 239 180 369 369 369 71 71 188 188 14 14 206
 206 206 206 206 278 278 278 278 148 148 148 236 236 17 17 17 17 17 239 239
 369 369 369 306 188 188 188 240 206 206 206 206 206 206 278 278 278 278 148 137
 93 93 93 136 136 136 17 239 239 239 239 369 369 306 188 188 188 188 206 206
 206 206 206 206 278 278 278 278 93 93 93 93 136 136 136 136 136 4 368 368
 368 369 369 306 188 188 188 206 206 206 206 206 206 206 206 278 278 93 93 93
 93 93 93 136 136 136 136 4 368 368 368 100 100 100 306 306 360 360 206 206
 206 206 206 206 206 278 278 93 93 93 84 84 84 136 136 136 136 4 368 368
 100 100 100 100 306 360 360 360 360 206 206 206 206 206 206 278 84 84 84 84
 84 84 298 298 298 298 7 7 41 41 100 100 100 100 343 166 166 360 113 113
 113 206 206 206 206 84 84 84 84 84 84 84 298 298 298 7 7 7 7 7
 41 100 100 67 80 166 166 166 166 113 113 206 206 232 232 84 84 84 84 84
 84 84 298 298 298 7 7 7 7 7 41 67 67 67 67 166 166 166 166 166
 113 113 232 232 232 245 245 84 84 84 84 321 321 321 321 7 7 7 7 7
 67 67 67 67 67 166 166 166 166 166 166 166 191 191 20 245 245 245 151 84
 321 321 321 321 321 321 7 7 7 7 67 67 67 67 67 67 166 166 166 166
 221 191 191 191 20 245 245 245 245 84 321 321 321 321 321 321 7 7 7 7
 67 67 67 67 67 67 166 166 166 221 221 191 191 191 191 191 245 245 245 176
 321 321 321 321 321 76 76 217 217 217 67 67 67 67 67 67 67 221 221 221
 221 221 191 191 191 191 176 176 176 176 321 321 321 321 76 76 76 76 217 217
 67 67 67 67 67 67 221 221 221 221 221 221 221 191 176 176 176 176 176 176
 129 321 321 76 76 76 76 76 217 10 10 67 67 67 67 67 68 221 221 221
 221 221 221 39 39 39 39 176 129 129 129 129 324 105 105 105 105 105 10 10
 10 10 10 291 291 68 68 68 221 221 221 221 221 39 39 39 39 176 129 129
 129 282 105 105 105 105 105 105 10 10 10 10 10 291 291 68 68 68 68 221
 221 221 39 39 39 39 39 218 129 129 282 282 105 105 105 105 105 105 10 10
 10 10 10 291 291 291 68 68 68 221 355 355 355 39 39 185 185 185 218 326
 326 282 105 105 105 105 105 105 10 10 10 10 10 291 291 291 291 98 98 349
 349 355 355 185 185 185 185 185 326 326 326 371 371 371 105 105 105 105 201 201
 201 10 291 291 291 291 98 98 98 349 349 355 355 185 185 185 185 185 326 326
 326 371 371 371 371 371 105 342 201 201 66 66 66 66 291 291 98 98 98 98
 98 355 355 185 185 185 185 83 326 326 90 371 371 371 371 371 342 342 342 66
 66 66 66 66 258 258 98 98 98 312 98 30 30 30 185 185 185 83 83 90
 90 371 371 371 371 342 342 342 342 342 66 66 66 258 258 258 258 229 229 229
 229 30 30 30 185 185 83 83 90 90 90 90 371 371 371 342 342 342 342 342
 342 66 66 258 258 258 247 247 229 229 229 30 30 30 265 265 265 90 90 90
 90 228 228 165 295 295 342 342 342 342 342 230 230 258 258 258 247 247 229 229
 229 229 30 30 265 265 265 265 90 90 302 228 228 165 295 295 295 342 342 342
 342 230 230 258 258 258 138 138 14 14 14 14 14 78 265 265 265 265 302 302
 302 302 228 228 295 295 295 342 180 180 180 180 180 71 258 14 14 14 14 14
 14 14 14 78 265 265 265 302 302 302 302 302 302 302 73 295 295 180 180 180
 180 180 180 71 71 14 14 14 14 14 14 14 14 78 78 265 233 233 302 302
 302 302 302 73 101 101 101 180 180 180 180 180 180 71 71 71 14 14 14 14
 14 14 14 78 278 233 233 233 302 302 203 203 203 73 101 101 101 239 239 180
 180 180 71 71 71 71 14 14 14 14 14 14 14 278 278 278 278 302 302 302
 203 203 203 17 17 17 17 239 239 239 239 369 369 71 71 188 188 14 14 14
 206 206 206 278 278 278 278 278 302 148 148 236 236 17 17 17 17 239 239 239
 239 369 369 369 188 188 188 188 14 206 206 206 206 278 278 278 278 278 148 148
 187 187 187 187 136 4 4 4 239 239 239 239 369 306 188 171 188 188 206 206
 206 206 206 278 278 278 278 278 93 187 187 187 187 187 136 4 4 4 4 239
 239 239 239 171 171 171 171 360 206 206 206 206 206 206 278 278 278 278 93 93
 187 187 187 187 136 4 4 4 4 4 368 100 100 100 171 171 360 360 360 206
 206 206 206 206 206 278 278 84 93 93 84 84 187 187 225 225 4 4 4 4
 100 100 100 343 343 343 360 360 360 206 206 206 206 206 206 278 84 84 84 84
 84 84 298 298 225 225 225 7 7 4 100 100 100 343 343 343 343 360 166 166
 113 206 232 232 232 84 84 84 84 84 84 84 298 298 225 225 7 7 7 7
 248 248 343 343 343 343 166 166 166 166 166 232 232 232 232 84 84 84 84 84
 84 84 298 298 225 7 7 7 7 7 7 67 67 343 343 166 166 166 166 166
 166 166 232 232 232 151 151 151 84 84 84 321 321 321 321 7 7 7 7 7
 7 67 67 67 67 166 166 166 166 166 166 166 20 20 20 20 151 151 151 84
 321 321 321 321 321 321 7 7 7 7 114 67 67 67 67 166 166 166 166 166
 166 166 20 20 20 20 151 151 151 84 321 321 321 321 321 321 7 7 7 7
 114 67 67 67 67 67 166 166 166 166 221 221 20 20 20 20 245 245 245 176
 321 321 321 321 321 321 321 7 261 261 261 67 67 67 67 67 166 166 221 221
 221 221 20 20 20 20 176 176 176 176 321 321 321 321 321 76 76 76 261 261
 261 67 67 67 67 68 68 68 221 221 221 221 221 222 222 20 176 204 176 176
 129 321 321 321 105 105 105 105 261 261 261 261 67 67 67 68 68 68 68 221
 221 221 221 39 39 39 39 204 129 129 129 129 105 105 105 105 105 105 105 10
 10 10 10 375 68 68 68 68 68 68 221 221 39 39 39 39 39 204 129 129
 129 129 105 105 105 105 105 105 105 10 10 10 10 10 68 68 68 68 68 68
 221 221 39 39 39 39 39 204 129 129 129 105 105 105 105 105 105 105 105 10
 10 10 10 291 291 68 68 68 68 68 68 370 185 185 185 185 185 185 326 326
 326 326 105 105 105 105 105 105 201 201 201 10 10 291 291 68 68 68 68 68
 370 370 185 185 185 185 185 185 326 326 326 371 371 371 105 105 105 105 201 201
 201 10 45 291 291 291 98 98 98 349 349 355 355 185 185 185 185 185 326 326
 326 371 371 371 371 371 105 105 201 201 201 66 66 258 258 258 98 98 312 312
 312 30 30 185 185 185 185 185 326 326 90 371 371 371 371 371 297 342 342 342
 66 66 66 258 258 258 258 98 312 312 312 30 30 30 185 185 185 185 90 90
 90 371 371 371 371 371 297 297 342 342 66 66 66 258 258 258 258 229 229 312
 30 30 30 30 185 185 185 90 90 90 90 90 371 371 371 342 297 297 297 342
 342 66 258 258 258 258 258 229 229 229 30 30 30 30 30 265 265 90 90 90
 90 302 57 57 295 295 295 297 297 342 342 230 258 258 258 258 258 247 229 229
 229 30 30 30 265 265 265 90 90 90 302 302 57 57 295 295 295 342 297 342
 342 276 276 258 258 258 14 14 14 14 14 14 14 159 265 265 265 302 302 302
 302 302 302 57 295 295 295 342 297 223 180 180 276 276 276 14 14 14 14 14
 14 14 14 159 265 265 265 302 302 302 302 302 302 57 295 295 295 180 223 223
 180 180 180 71 71 14 14 14 14 14 14 14 14 14 28 28 302 302 302 302
 302 302 203 203 101 101 101 180 180 180 180 180 180 71 71 14 14 14 14 14
 14 14 14 14 28 28 233 302 302 302 302 203 203 203 101 101 101 239 239 239
 239 239 239 71 71 106 14 14 14 14 14 14 14 278 278 278 278 302 302 302
 302 203 203 203 101 101 101 239 239 239 239 239 239 106 106 188 188 14 14 14
 14 14 206 278 278 278 278 278 302 302 187 187 187 187 17 17 4 239 239 239
 239 239 239 239 188 188 188 188 14 206 206 206 206 278 278 278 278 278 148 148
 187 187 187 187 187 4 4 4 239 239 239 239 239 171 171 171 171 171 31 206
 206 206 206 278 278 278 278 278 211 187 187 187 187 187 136 4 4 4 4 239
 239 239 239 171 171 171 171 171 49 206 206 206 206 206 278 278 278 211 211 187
 187 187 187 187 187 4 4 4 4 4 333 239 25 171 171 171 171 360 49 49
 49 206 206 206 278 278 278 211 211 187 84 187 187 187 225 225 4 4 4 333
 333 248 248 343 343 343 343 360 49 49 49 206 232 232 232 232 84 84 84 84
 84 84 187 225 225 225 225 225 333 333 248 248 248 343 343 343 343 343 49 49
 49 232 232 232 232 232 84 84 84 84 84 84 298 225 225 225 225 7 7 7
 248 248 248 343 343 343 343 166 166 166 166 232 232 232 232 232 84 84 84 84
 84 84 298 225 225 225 7 7 7 7 248 248 248 343 343 343 166 166 166 166
 166 232 232 232 232 232 151 84 84 84 84 84 321 321 321 7 7 7 7 7
 114 114 114 343 343 166 166 166 166 166 166 166 232 232 20 20 151 151 84 84
 72 321 321 321 321 321 7 7 7 7 114 114 114 67 67 166 166 166 166 166
 166 166 20 20 20 20 151 151 151 84 72 321 321 321 321 321 321 7 7 261
 114 114 114 67 67 166 166 166 166 166 166 20 20 20 20 20 245 245 245 72
 72 321 321 321 321 321 321 261 261 261 261 114 114 67 67 67 68 68 166 221
 221 221 222 20 20 20 204 204 204 72 72 321 321 321 321 321 321 261 261 261
 261 261 114 67 67 68 68 68 68 68 221 221 222 222 222 204 204 204 204 204
 129 321 321 321 105 105 105 261 261 261 261 261 375 375 375 68 68 68 68 68
 68 221 222 222 222 204 204 204 204 129 129 129 105 105 105 105 105 105 261 261
 261 261 375 375 375 68 68 68 68 68 68 68 222 39 39 39 204 204 204 129
 129 129 105 105 105 105 105 105 105 10 10 10 375 375 375 68 68 68 68 68
 68 68 370 39 39 39 204 204 204 129 129 105 105 105 105 105 105 105 105 10
 10 45 45 45 45 68 68 68 68 68 68 370 370 185 185 185 185 185 204 326
 326 326 105 105 105 105 105 105 201 201 201 45 45 45 45 68 68 68 68 68
 370 370 370 185 185 185 185 185 326 326 326 371 371 371 105 105 105 105 201 201
 201 45 45 45 54 54 68 68 68 370 370 370 370 185 185 185 185 185 326 326
 326 371 371 371 371 371 105 105 201 201 201 358 45 45 258 258 54 351 312 312
 312 370 370 185 185 185 185 185 326 326 90 371 371 371 371 371 297 297 297 297
 358 358 358 258 258 258 258 312 312 312 312 30 30 30 185 185 185 185 90 90
 90 371 371 371 371 371 297 297 297 297 297 358 258 258 258 258 258 229 312 312
 30 30 30 30 185 185 185 90 90 90 90 90 371 371 371 297 297 297 297 297
 297 358 258 258 258 258 258 229 229 229 30 30 30 30 30 115 90 90 90 90
 90 302 57 57 57 295 297 297 297 297 297 276 276 276 258 258 258 247 14 14
 14 30 159 159 159 265 265 90 90 90 302 302 57 57 57 295 295 297 297 297
 297 276 276 276 276 258 14 14 14 14 14 14 159 159 159 159 302 302 302 302
 302 302 57 57 57 295 295 297 223 223 223 223 276 276 276 276 14 14 14 14
 14 14 159 159 159 265 302 302 302 302 302 302 302 57 57 295 295 223 223 223
 223 223 276 276 276 14 14 14 14 14 14 14 14 159 28 28 302 302 302 302
 302 302 302 57 307 307 307 307 223 223 223 223 106 106 106 106 14 14 14 14
 14 14 14 14 28 28 28 302 302 302 302 302 203 307 307 307 307 239 239 239
 239 239 106 106 106 106 14 14 14 14 14 14 14 28 28 28 28 302 302 302
 302 302 203 307 307 307 307 239 239 239 239 239 106 106 106 106 106 14 14 14
 14 14 278 278 278 278 278 278 302 302 187 187 187 187 307 307 4 239 239 239
 239 239 106 106 106 106 106 31 31 14 206 206 206 278 278 278 278 278 302 187
 187 187 187 187 189 189 4 4 239 239 239 239 25 25 171 171 171 31 31 31
 270 270 270 278 278 278 278 211 211 211 187 187 187 187 189 189 4 4 4 239
 239 239 25 25 171 171 171 171 31 31 270 270 270 278 278 278 278 211 211 211
 187 187 187 187 189 4 4 4 4 333 333 248 25 25 171 171 171 360 49 49
 49 206 206 232 232 278 211 211 211 187 187 187 187 187 225 225 4 4 333 333
 333 248 248 343 343 343 343 343 49 49 49 232 232 232 232 232 211 211 84 187
 84 84 378 225 225 225 225 225 333 333 248 248 248 343 343 343 343 343 49 49
 49 232 232 232 232 232 232 84 84 84 84 84 378 225 225 225 225 225 7 248
 248 248 248 343 343 343 343 343 166 166 49 232 232 232 232 232 232 84 84 84
 84 84 378 225 225 225 225 7 7 248 248 248 248 343 343 343 343 166 166 166
 166 232 232 232 232 232 151 84 84 84 72 72 72 321 225 225 7 7 7 7
 114 114 114 343 343 343 166 166 166 166 166 232 232 232 232 232 151 151 84 84
 72 72 72 321 321 321 7 7 7 114 114 114 114 114 67 166 166 166 166 166
 166 48 48 20 20 20 151 151 72 72 72 72 72 321 321 321 321 261 261 261
 114 114 114 114 67 166 166 166 166 166 48 48 48 20 20 20 204 204 72 72
 72 72 72 321 321 321 321 261 261 261 261 114 114 114 68 68 68 68 68 68
 48 48 222 222 222 204 204 204 204 72 72 72 72 321 321 321 321 261 261 261
 261 261 114 114 68 68 68 68 68 68 68 222 222 222 222 204 204 204 204 72
 72 72 72 321 105 105 105 261 261 261 261 261 375 375 375 68 68 68 68 68
 68 222 222 222 222 204 204 204 204 204 129 72 105 105 105 105 105 105 261 261
 261 261 375 375 375 68 68 68 68 68 68 68 222 222 39 204 204 204 204 204
 110 110 105 105 105 105 105 105 246 246 246 261 375 375 375 68 68 68 68 68
 68 370 370 370 39 204 204 204 204 110 110 110 105 105 105 105 105 105 246 246
 246 45 45 45 45 68 68 68 68 68 370 370 370 370 185 185 204 204 110 110
 110 110 105 105 105 105 105 58 246 246 246 45 45 45 54 54 68 68 68 370
 370 370 370 370 185 185 185 185 110 110 326 371 371 105 105 105 105 58 58 246
 246 45 45 45 54 54 54 54 351 370 370 370 370 370 185 185 185 185 326 110
 326 371 371 371 371 371 58 58 58 358 358 358 358 358 54 54 54 351 351 351
 370 370 370 370 185 185 185 185 326 326 118 371 371 371 371 297 297 297 297 297
 358 358 358 358 258 258 351 351 351 351 351 370 370 370 185 185 185 185 90 90
 118 118 371 371 371 297 297 297 297 297 358 358 358 358 258 258 258 351 351 351
 351 30 30 30 185 115 115 90 90 90 118 118 118 57 57 297 297 297 297 297
 358 358 358 258 258 258 286 286 286 351 351 30 30 159 159 115 115 90 90 90
 118 118 57 57 57 297 297 297 297 297 297 358 276 276 276 286 286 286 286 286
 14 159 159 159 159 159 115 5 90 90 302 57 57 57 57 57 297 297 297 297
 297 276 276 276 276 286 286 286 286 14 14 159 159 159 159 159 159 302 302 302
 302 302 57 57 57 57 295 223 223 223 223 223 276 276 276 286 286 286 14 14
 14 14 159 159 159 159 302 302 302 302 302 302 57 57 57 57 223 223 223 223
 223 223 276 276 276 286 286 14 14 14 14 14 14 159 159 28 28 302 302 302
 302 302 302 307 307 307 307 223 223 223 223 223 106 106 106 106 14 14 14 14
 14 14 14 159 28 28 28 302 302 302 302 302 302 307 307 307 307 307 239 239
 239 239 106 106 106 106 106 14 14 14 14 270 270 28 28 28 28 302 302 302
 302 302 187 307 307 307 307 239 239 239 239 106 106 106 106 106 106 106 14 270
 270 270 270 270 28 28 28 302 302 302 187 187 187 187 307 307 4 239 239 239
 239 239 106 106 106 106 106 31 31 270 270 270 270 270 278 278 278 278 211 187
 187 187 187 187 189 189 189 189 249 249 249 25 25 25 25 171 171 31 31 31
 270 270 270 270 278 278 278 211 211 211 187 187 187 187 189 189 189 4 4 249
 249 25 25 25 25 171 171 31 31 31 270 270 270 270 278 278 211 211 211 211
 187 187 187 187 189 189 189 4 4 333 333 248 25 25 25 171 171 31 49 49
 49 270 270 232 232 211 211 211 211 211 187 187 187 378 225 225 225 4 333 333
 248 248 248 248 343 343 343 343 49 49 49 49 232 232 232 232 211 211 211 187
 84 378 378 378 225 225 225 225 248 248 248 248 248 248 343 343 343 343 49 49
 49 232 232 232 232 232 127 84 84 84 32 378 378 378 225 225 225 225 248 248
 248 248 248 248 343 343 343 343 166 49 49 232 232 232 232 127 127 84 32 32
 32 72 378 378 225 225 225 225 248 248 248 248 248 248 343 343 343 343 166 166
 377 377 232 232 232 232 127 32 32 32 72 72 72 72 225 225 225 225 248 248
 248 248 248 248 343 343 166 166 166 166 377 377 377 232 232 232 127 32 32 32
 72 72 72 72 72 321 7 7 7 114 114 114 114 114 343 166 166 166 166 166
 48 48 48 48 20 20 33 33 72 72 72 72 72 72 321 321 321 261 261 261
 114 114 114 114 114 166 166 166 166 48 48 48 48 48 48 33 33 33 72 72
 72 72 72 72 321 321 321 261 261 261 261 114 114 114 114 68 68 68 68 48
 48 48 48 222 222 222 33 33 72 72 72 72 72 72 321 321 261 261 261 261
 261 261 114 114 68 68 68 68 68 68 48 48 222 222 222 204 204 204 204 72
 72 72 72 72 105 105 261 261 261 261 261 261 375 375 375 68 68 68 68 68
 68 48 222 222 222 204 204 204 204 204 110 72 72 105 105 105 105 261 261 261
 261 261 375 375 375 68 68 68 68 68 68 48 222 222 222 204 204 204 204 204
 110 110 105 105 105 105 105 105 246 246 246 246 375 375 375 68 68 68 68 68
 370 370 370 370 370 204 204 204 110 110 110 110 110 105 105 105 105 58 246 246
 246 45 45 45 54 54 68 68 68 68 370 370 370 370 370 204 204 110 110 110
 110 110 110 105 105 105 58 58 246 246 246 45 45 45 54 54 54 68 68 370
 370 370 370 370 370 185 185 110 110 110 110 110 285 285 105 58 58 58 58 246
 246 358 45 54 54 54 54 54 351 370 370 370 370 370 370 185 185 110 110 110
 118 118 371 371 371 58 58 58 58 358 358 358 358 358 54 54 54 351 351 351
 370 370 370 370 370 185 185 185 110 110 118 118 371 371 371 297 297 297 297 358
 358 358 358 358 54 54 351 351 351 351 351 370 370 370 370 185 115 5 5 118
 118 118 118 118 371 297 297 297 297 358 358 358 358 358 258 258 351 351 351 351
 351 370 370 370 115 115 115 5 5 118 118 118 118 57 57 297 297 297 297 297
 358 358 358 358 258 286 286 286 286 351 351 318 30 159 115 115 115 5 5 118
 118 118 57 57 57 297 297 297 297 297 181 181 276 276 276 286 286 286 286 286
 318 318 159 159 159 115 115 5 5 5 302 57 57 57 57 57 297 297 297 297
 181 181 276 276 276 286 286 286 286 286 318 318 159 159 159 159 115 5 5 5
 302 57 57 57 57 57 297 297 223 223 223 181 276 276 276 286 286 286 286 286
 14 318 159 159 159 159 28 302 302 302 302 302 57 57 57 57 307 223 223 223
 223 223 276 276 276 286 286 286 286 14 14 14 159 159 28 28 28 302 302 302
 302 302 302 57 307 307 307 307 223 223 223 359 359 106 106 106 37 37 37 14
 14 14 270 28 28 28 28 302 302 302 302 302 150 307 307 307 307 307 249 249
 359 359 106 106 106 106 37 37 37 14 270 270 270 270 28 28 28 302 302 302
 150 150 150 150 307 307 307 249 249 249 249 359 106 106 106 106 37 37 37 270
 270 270 270 270 28 28 28 28 302 302 150 150 150 187 189 189 189 249 249 249
 249 249 106 106 106 106 37 31 31 31 270 270 270 270 28 28 28 211 211 187
 150 150 150 189 189 189 189 189 249 249 249 249 25 25 25 25 31 31 31 31
 270 270 270 270 270 16 16 16 16 211 187 187 187 189 189 189 189 189 249 249
 249 25 25 25 25 25 31 31 31 31 270 270 270 270 357 357 16 211 211 211
 187 187 187 189 189 189 189 189 4 248 248 25 25 25 25 25 171 31 31 31
 49 270 270 270 357 357 357 211 211 187 187 187 187 378 189 189 189 189 248 248
 248 248 248 25 25 25 343 343 49 135 49 212 212 232 127 127 127 211 211 187
 187 378 378 378 378 225 225 225 248 248 248 248 248 248 343 343 343 343 135 135
 135 212 232 232 127 127 127 127 32 32 32 378 378 378 378 225 225 225 248 248
 248 248 248 248 343 343 343 343 135 135 135 232 232 232 127 127 127 127 32 32
 32 72 378 378 378 225 225 225 248 248 248 248 248 248 343 343 343 343 135 135
 377 377 377 232 127 127 127 127 32 32 32 72 72 72 378 225 225 225 248 248
 248 248 248 248 343 343 293 166 166 377 377 377 377 232 127 127 127 32 32 32
 72 72 72 72 72 225 272 272 272 248 248 114 248 248 293 293 293 166 166 48
 48 377 48 48 48 48 33 33 32 72 72 72 72 72 72 321 272 272 272 261
 114 114 114 114 293 293 293 68 48 48 48 48 48 48 48 48 33 33 33 72
 72 72 72 72 72 321 272 272 272 261 261 114 114 114 293 68 68 68 68 48
 48 48 48 48 48 48 33 33 33 72 72 72 72 72 72 321 272 261 261 261
 261 261 114 114 68 68 68 68 68 48 48 48 48 48 48 204 259 259 259 72
 72 72 72 72 72 105 261 261 261 261 261 261 375 375 375 214 68 68 68 68
 48 48 48 48 48 204 204 259 204 204 110 110 72 46 46 105 105 246 246 246
 246 246 375 375 375 68 68 68 68 68 68 48 48 48 92 204 204 204 204 110
 110 110 46 46 46 105 105 246 246 246 246 246 375 375 375 68 68 68 68 68
 370 370 370 370 370 204 204 204 110 110 110 110 46 46 46 58 58 58 246 246
 246 246 45 45 54 54 54 68 68 370 370 370 370 370 370 316 316 110 110 110
 110 110 46 46 46 58 58 58 246 246 246 246 45 54 54 54 54 54 370 370
 370 370 370 370 370 370 316 110 110 110 110 285 285 285 285 58 58 58 58 246
 246 358 358 54 54 54 54 54 351 370 370 370 370 370 370 370 316 110 110 110
 285 285 285 285 285 58 58 58 58 358 358 358 358 358 54 54 54 351 351 351
 370 370 370 370 370 370 185 110 110 110 118 118 285 285 285 285 297 58 58 358
 358 358 358 358 54 54 351 351 351 351 351 370 370 370 370 115 115 5 5 5
 118 118 118 285 285 297 297 297 297 358 358 358 358 358 311 311 351 351 351 351
 351 370 370 370 115 115 115 5 5 5 118 118 118 118 57 297 297 297 297 297
 358 358 358 358 311 311 286 286 351 351 351 318 318 318 115 115 115 5 5 5
 118 118 118 57 57 297 297 297 297 181 181 181 181 181 286 286 286 286 286 286
 318 318 318 318 115 115 115 5 5 5 5 118 57 57 57 57 297 297 297 181
 181 181 181 181 286 286 286 286 286 286 318 318 318 318 318 115 5 5 5 5
 5 57 57 57 57 57 297 297 223 181 181 181 181 181 286 286 286 286 286 286
 318 318 318 318 318 318 5 5 5 5 302 302 57 57 57 339 339 223 223 223
 181 181 181 181 286 286 286 286 286 286 318 318 318 318 318 28 28 5 302 302
 302 302 302 57 307 307 307 307 234 234 234 359 359 234 106 106 37 37 37 14
 318 318 318 318 28 28 28 302 302 302 302 150 150 307 307 307 307 249 249 249
 359 359 359 106 106 106 37 37 37 270 270 270 270 270 28 28 28 16 16 302
 150 150 150 150 307 307 307 249 249 249 249 359 234 106 106 106 37 37 37 270
 270 270 270 270 28 28 16 16 16 16 150 150 150 150 189 189 189 249 249 249
 249 249 234 25 25 106 37 31 31 31 270 270 270 270 28 16 16 16 16 16
 150 150 150 189 195 195 189 189 249 249 249 249 25 25 25 25 31 31 31 31
 270 270 270 270 357 357 16 16 16 16 187 187 187 189 189 189 189 189 249 249
 249 25 25 25 25 25 25 31 31 31 270 270 270 357 357 357 16 16 16 16
 187 187 146 146 189 189 189 189 189 248 248 248 25 25 25 25 25 31 31 31
 212 212 212 357 357 357 357 357 357 187 187 187 146 146 146 189 189 189 248 248
 248 248 248 248 25 25 19 19 135 135 212 212 212 212 357 357 357 357 357 243
 32 378 378 378 378 378 284 284 284 248 248 248 248 248 248 343 19 19 135 135
 135 212 212 127 127 127 127 127 32 32 32 378 378 378 378 378 284 284 284 248
 248 248 248 248 248 343 19 19 135 135 135 212 212 127 127 127 127 283 32 32
 32 72 378 378 378 378 284 284 284 248 248 248 248 248 248 343 19 19 135 135
 135 377 377 127 127 127 127 283 32 32 32 72 72 72 378 225 284 284 284 248
 248 248 248 248 293 293 293 19 135 135 377 377 377 127 127 283 283 283 32 32
 72 72 72 72 72 72 272 272 272 248 248 248 248 293 293 293 293 293 48 48
 48 48 48 48 48 283 283 33 32 72 72 72 72 72 72 72 272 272 272 272
 114 162 114 293 293 293 293 293 48 48 48 48 48 48 48 48 33 33 33 72
 72 72 72 72 72 72 272 272 272 272 162 162 162 293 293 293 293 68 48 48
 48 48 48 48 48 48 33 33 33 72 72 72 72 72 72 272 272 272 272 272
 162 162 162 162 293 214 214 68 68 48 48 48 48 48 48 48 259 259 259 72
 72 72 72 72 72 272 272 272 70 261 162 162 162 162 208 214 214 68 68 48
 48 48 48 48 92 92 385 385 385 72 110 72 46 46 46 46 272 70 70 246
 246 271 271 208 208 208 208 68 68 303 48 48 48 92 92 92 385 385 385 110
 110 110 46 46 46 46 46 246 246 246 246 271 271 271 208 208 208 68 68 68
 370 370 370 92 92 92 316 316 110 110 110 110 46 46 46 46 58 58 246 246
 246 271 271 54 54 54 54 68 68 370 370 370 370 370 370 92 316 316 110 110
 110 110 46 46 46 58 58 58 246 246 246 271 271 54 54 54 54 54 370 370
 370 370 370 370 370 370 316 316 110 110 110 285 285 285 285 58 58 58 58 246
 358 358 358 54 54 54 54 351 351 370 370 370 370 370 370 370 316 316 110 110