# vtk DataFile Version 2.0
Data set from IO Version 6.4.197.9a0dee2
ASCII

DATASET RECTILINEAR_GRID
DIMENSIONS 31 31 31
X_COORDINATES 31 float
-3.250000 3.250000 9.750000 16.250000 22.750000 29.250000 35.750000 42.250000 48.750000 55.250000 61.750000 68.250000 74.750000 81.250000 87.750000 94.250000 100.750000 107.250000 113.750000 120.250000 126.750000 
133.250000 139.750000 146.250000 152.750000 159.250000 165.750000 172.250000 178.750000 185.250000 191.750000 
Y_COORDINATES 31 float
-3.250000 3.250000 9.750000 16.250000 22.750000 29.250000 35.750000 42.250000 48.750000 55.250000 61.750000 68.250000 74.750000 81.250000 87.750000 94.250000 100.750000 107.250000 113.750000 120.250000 126.750000 
133.250000 139.750000 146.250000 152.750000 159.250000 165.750000 172.250000 178.750000 185.250000 191.750000 
Z_COORDINATES 31 float
-3.250000 3.250000 9.750000 16.250000 22.750000 29.250000 35.750000 42.250000 48.750000 55.250000 61.750000 68.250000 74.750000 81.250000 87.750000 94.250000 100.750000 107.250000 113.750000 120.250000 126.750000 
133.250000 139.750000 146.250000 152.750000 159.250000 165.750000 172.250000 178.750000 185.250000 191.750000 
CELL_DATA 27000
SCALARS FeatureIds int 1
LOOKUP_TABLE default
 129 129 129 129 129 266 266 111 111 111 111 111 408 408 408 408 408 386 386 386
 386 397 397 397 340 340 340 16 16 129 129 129 129 129 129 204 204 111 111 111
 111 111 111 111 408 408 408 386 386 386 397 397 397 397 340 340 340 16 129 129
 129 129 129 129 204 204 204 204 111 111 111 111 111 111 408 408 227 386 386 386
 397 397 397 397 340 340 249 249 129 129 129 129 129 129 204 204 204 204 404 404
 111 111 111 111 111 227 227 193 193 193 193 397 397 397 67 249 249 249 249 129
 242 242 242 242 204 204 204 379 379 379 379 111 111 111 227 227 227 227 193 193
 193 193 67 67 67 249 249 249 249 242 242 242 242 242 260 260 260 159 379 379
 379 301 301 301 227 227 227 227 193 193 193 193 67 67 67 249 249 249 249 242
 242 242 242 242 260 260 260 159 379 379 379 301 301 308 308 308 227 227 193 193
 193 193 67 67 67 249 249 249 249 242 372 372 372 260 260 260 260 260 159 379
 379 301 301 308 308 308 308 308 193 193 193 193 67 36 67 267 249 249 249 242
 372 372 372 260 260 260 260 260 159 307 307 307 307 81 308 308 308 308 308 154
 154 154 36 36 36 267 267 267 267 267 248 248 248 248 333 333 333 333 307 307
 307 307 307 81 81 81 308 308 154 154 154 154 36 36 36 267 267 267 267 267
 248 248 248 248 333 333 333 29 29 307 307 307 307 307 77 186 186 308 154 154
 154 154 36 136 136 267 267 267 267 248 248 248 248 248 333 333 333 29 29 307
 307 307 307 77 77 186 186 186 154 154 154 154 390 136 136 136 267 267 325 248
 248 248 248 248 333 333 333 29 29 29 137 137 137 137 77 186 186 33 33 390
 390 390 390 390 136 136 176 325 325 325 304 304 248 248 333 333 169 169 29 29
 137 137 137 137 77 33 33 33 33 390 390 390 390 390 136 176 176 176 304 304
 304 304 248 169 169 169 169 169 169 29 137 137 137 137 33 33 33 33 33 33
 390 390 390 390 390 176 176 176 176 304 304 12 12 169 169 169 169 169 169 169
 137 137 137 33 33 33 33 33 33 33 390 390 390 390 176 176 176 176 176 304
 12 12 12 169 169 169 169 263 263 263 354 122 145 145 33 33 33 33 33 33
 390 390 390 390 176 176 176 176 265 265 12 12 12 12 169 169 263 263 263 354
 354 122 122 122 33 33 33 33 33 33 196 196 196 196 176 176 265 265 265 265
 12 12 12 12 338 338 290 290 290 354 354 122 122 122 122 33 33 33 33 196
 196 196 196 196 196 1 244 265 265 265 12 12 12 338 338 338 338 290 290 354
 354 122 122 122 303 381 381 381 381 196 196 196 196 196 1 1 1 244 244 265
 12 12 12 338 338 338 338 290 252 252 354 122 122 303 303 381 381 381 381 381
 196 196 196 196 1 1 1 244 244 244 192 278 257 257 257 257 257 252 252 252
 252 303 303 303 303 381 381 381 381 381 196 196 196 196 198 1 1 192 192 192
 192 192 257 257 257 257 257 257 252 252 252 303 303 303 303 381 381 381 381 381
 148 148 148 148 198 198 198 192 192 192 192 192 192 257 257 257 257 257 271 271
 156 156 303 303 303 381 381 381 381 148 148 148 148 148 198 198 198 192 192 192
 192 192 257 257 257 257 257 271 271 271 271 156 156 326 326 326 381 381 381 283
 148 148 148 148 198 198 198 192 192 192 192 192 398 257 257 257 257 271 271 271
 271 271 326 326 326 326 326 211 283 283 283 148 148 173 173 173 173 192 192 192
 398 398 398 398 398 398 257 271 271 271 271 271 326 326 326 326 211 211 211 211
 211 211 173 173 173 173 173 173 192 192 398 398 398 398 398 398 398 271 271 271
 271 271 408 408 408 408 211 211 211 211 211 211 173 173 173 173 340 340 16 16
 129 398 398 398 398 398 398 271 271 271 271 408 408 408 408 408 211 211 211 211
 211 211 250 250 340 340 340 16 16 16 129 129 129 35 398 398 398 271 271 271
 408 408 408 408 408 408 408 386 386 386 386 397 397 250 340 340 340 16 16 16
 129 129 129 129 266 266 266 266 111 111 111 111 111 331 331 408 110 110 386 386
 397 397 397 397 340 340 16 16 16 129 129 129 129 129 266 266 266 266 111 111
 111 111 111 111 408 408 110 110 386 386 397 397 397 397 340 281 281 16 129 129
 129 129 129 129 266 266 266 111 111 111 111 111 111 111 111 5 193 193 193 386
 397 397 397 397 340 281 281 249 129 129 129 129 129 129 204 266 204 404 404 404
 111 111 111 111 111 227 193 193 193 193 193 397 397 67 67 249 249 249 249 129
 242 242 242 242 204 204 204 379 379 379 379 111 111 111 227 227 227 193 193 193
 193 193 67 67 67 249 249 249 249 242 242 242 242 242 260 260 260 379 379 379
 379 379 301 227 227 227 227 193 193 193 193 193 67 67 67 67 249 249 249 242
 242 242 242 242 260 260 260 260 379 379 379 379 301 308 308 227 227 193 193 193
 193 193 67 67 67 67 249 249 249 242 242 242 242 260 260 260 260 260 379 379
 379 379 301 308 308 308 308 308 193 193 193 154 36 36 36 267 267 267 267 267
 372 372 372 260 260 260 260 260 379 307 307 307 307 81 308 308 308 308 154 154
 154 154 36 36 36 267 267 267 267 267 248 248 248 248 333 333 333 333 307 307
 307 307 307 81 81 308 308 308 154 154 154 154 36 36 36 267 267 267 267 267
 248 248 248 248 333 333 333 333 307 307 307 307 307 307 186 186 186 186 154 154
 154 154 36 36 36 267 267 267 267 248 248 248 248 248 333 333 333 333 307 307
 307 307 307 77 77 186 186 186 154 154 154 154 154 36 36 267 267 267 267 248
 248 248 248 248 333 333 333 333 29 307 307 307 307 307 186 186 186 186 154 154
 154 390 390 390 136 267 267 267 267 248 248 248 248 248 169 169 169 169 317 317
 307 307 307 307 186 186 33 33 33 390 390 390 390 57 57 176 176 176 304 304
 304 324 324 169 169 169 169 169 169 317 307 307 307 24 24 24 33 33 33 33
 390 390 390 390 176 176 176 176 176 304 324 324 324 169 169 169 169 169 169 317
 317 317 317 24 24 24 33 33 33 33 390 390 390 390 176 176 176 176 265 265
 265 12 12 169 169 169 169 169 169 317 122 122 122 24 24 24 33 33 33 392
 392 392 390 390 176 176 265 265 265 265 265 12 12 169 169 169 169 169 169 354
 122 122 122 122 24 33 33 33 392 392 392 196 196 196 265 265 265 265 265 265
 12 12 12 338 338 338 338 338 338 354 354 122 122 122 122 33 33 39 392 392
 196 196 196 196 1 1 1 265 265 265 12 12 338 338 338 338 338 338 338 354
 354 122 122 122 303 381 381 381 381 196 196 196 196 196 1 1 1 1 265 265
 278 278 338 338 338 338 338 338 252 252 252 122 122 122 303 381 381 381 381 381
 196 196 196 196 1 1 1 1 244 91 278 278 278 338 338 338 338 252 252 252
 252 252 122 303 303 381 381 381 381 381 148 148 148 148 1 1 1 1 192 192
 192 278 278 257 257 257 257 252 252 252 252 252 282 282 282 381 381 381 381 381
 148 148 148 148 198 198 198 198 192 192 192 192 43 43 43 43 257 271 271 271
 156 156 282 282 282 381 381 381 381 148 148 148 148 148 198 198 198 198 192 192
 192 192 43 43 43 43 257 271 271 271 271 156 326 326 326 326 381 381 381 148
 148 148 148 148 198 198 198 198 192 192 192 82 43 43 43 43 271 271 271 271
 271 271 326 326 326 326 326 76 75 75 148 148 148 148 198 198 198 198 192 192
 161 398 398 398 398 43 271 271 271 271 271 271 326 326 326 326 326 211 211 211
 75 148 148 173 173 173 173 173 192 192 398 398 398 398 398 398 271 271 271 271
 271 271 326 326 326 326 76 211 211 211 211 211 173 340 340 340 340 340 16 16
 129 129 398 398 398 398 125 271 271 271 271 408 408 408 331 331 110 110 211 211
 211 211 250 340 340 340 16 16 16 16 129 129 129 129 129 266 266 271 271 271
 271 408 408 331 331 331 110 110 386 386 386 397 397 340 340 340 16 16 16 129
 129 129 129 129 266 266 266 266 111 111 111 111 331 331 331 110 110 110 110 110
 394 394 394 394 281 281 281 16 16 129 129 129 129 129 266 266 266 266 111 111
 111 111 111 331 5 5 110 110 110 394 394 394 394 394 281 281 281 281 129 129
 129 129 129 129 266 266 266 266 111 111 111 111 111 5 5 5 5 110 193 394
 394 394 394 394 281 281 281 281 80 80 80 129 129 129 266 266 266 404 404 404
 111 111 5 5 5 5 5 193 193 193 193 394 394 67 281 281 281 80 80 80
 242 242 242 242 242 266 260 379 379 379 379 270 5 5 5 5 227 193 193 193
 193 193 67 67 67 67 249 249 80 80 242 242 242 242 260 260 260 379 379 379
 379 270 270 270 5 227 227 193 193 193 193 193 67 67 67 67 249 249 80 242
 242 242 242 242 260 260 260 260 379 379 379 270 270 270 308 227 227 193 193 193
 193 193 67 67 67 267 267 267 267 242 242 242 242 260 260 260 260 260 379 379
 379 270 270 270 308 308 308 193 193 193 193 154 67 36 67 267 267 267 267 267
 267 242 242 260 260 260 260 260 379 379 307 307 228 228 308 308 308 308 154 154
 154 154 36 36 36 267 267 267 267 267 248 248 248 248 333 333 333 333 307 307
 307 307 228 228 81 308 308 154 154 154 154 154 36 36 36 267 267 267 267 267
 248 248 248 248 333 333 333 333 307 307 307 307 307 307 186 186 186 186 154 154
 154 154 154 36 36 267 267 267 267 267 248 248 248 248 333 333 333 333 307 307
 307 307 307 307 186 186 186 186 154 154 154 154 154 36 36 267 267 267 267 248
 248 248 248 248 333 333 333 333 317 317 307 307 307 307 186 186 186 186 154 154
 154 154 57 57 57 267 267 267 267 248 248 248 248 248 169 169 169 169 317 317
 317 317 307 307 24 24 24 33 33 390 390 390 57 57 57 57 267 267 304 304
 324 324 324 169 169 169 169 169 317 317 317 317 317 24 24 24 24 33 33 33
 390 390 57 57 57 176 176 176 176 304 324 324 324 169 169 169 169 169 317 317
 317 317 317 24 24 24 24 33 392 392 392 392 57 57 57 176 176 265 265 265
 324 324 324 169 169 169 169 169 317 317 317 317 24 24 24 24 24 392 392 392
 392 392 392 95 95 176 265 265 265 265 265 324 324 338 338 338 338 338 338 144
 122 122 122 122 24 24 24 392 392 392 392 392 392 95 95 265 265 265 265 265
 12 12 338 338 338 338 338 338 338 144 354 122 122 122 24 39 39 39 392 392
 392 392 196 95 95 1 1 265 265 265 278 338 338 338 338 338 338 338 144 144
 354 122 122 122 122 39 39 39 39 392 392 392 196 196 1 1 1 1 265 91
 278 278 278 338 338 338 338 338 252 252 252 122 122 122 303 381 381 381 381 381
 196 196 196 196 1 1 1 1 91 91 278 278 278 338 338 338 338 338 252 252
 252 252 282 282 282 381 381 381 381 381 148 148 148 148 198 1 1 1 91 91
 278 278 278 43 43 338 338 252 252 252 252 282 282 282 282 282 381 381 381 148
 148 148 148 148 198 198 198 198 192 192 192 278 278 43 43 43 226 226 271 271
 271 282 282 282 282 282 381 381 381 148 148 148 148 148 198 198 198 198 192 192
 192 82 43 43 43 43 226 271 271 271 271 271 282 326 326 326 326 381 381 75
 75 148 148 148 198 198 198 198 192 192 82 82 43 43 43 43 271 271 271 271
 271 271 326 326 326 326 326 76 76 75 75 75 148 148 198 198 198 289 289 192
 161 161 323 323 323 43 125 271 271 271 271 271 326 326 326 326 76 76 76 75
 75 75 148 148 173 340 289 289 289 161 161 161 161 323 323 323 125 125 271 271
 271 271 326 326 326 326 76 76 76 76 211 75 340 340 340 340 340 16 16 161
 161 161 161 323 323 125 125 125 125 271 271 331 331 331 331 331 110 110 110 110
 211 394 340 340 340 340 16 16 16 16 129 129 129 129 266 266 266 125 125 271
 271 331 331 331 331 331 110 110 110 110 386 394 394 340 340 340 16 16 16 129
 129 129 129 129 266 266 266 266 111 111 111 331 331 331 331 110 110 110 110 110
 394 394 394 394 281 281 281 281 16 129 129 129 129 129 266 266 266 266 266 111
 111 111 5 5 5 5 110 110 110 394 394 394 394 394 281 281 281 281 281 129
 80 129 129 129 266 266 266 266 266 111 111 5 5 5 5 5 5 110 110 394
 394 394 394 281 281 281 281 281 80 80 80 129 129 129 266 266 266 266 404 404
 111 5 5 5 5 5 5 355 193 394 394 394 394 281 281 281 281 281 80 80
 242 242 242 242 266 266 266 164 379 379 270 270 5 5 5 5 5 193 193 193
 193 312 312 67 67 281 281 80 80 80 242 242 242 242 260 260 260 164 164 270
 270 270 270 270 5 5 193 193 193 193 193 312 312 67 67 267 267 80 80 80
 242 242 242 242 260 260 260 164 164 270 270 270 270 270 5 5 193 193 193 193
 193 312 312 67 67 267 267 267 267 267 280 280 280 260 260 260 260 164 164 270
 270 270 270 270 308 66 66 66 193 193 154 154 312 36 267 267 267 267 267 267
 280 280 280 280 260 260 260 260 164 270 270 228 228 228 228 66 66 154 154 154
 154 154 119 36 267 267 267 267 267 267 267 248 248 389 389 389 389 389 22 307
 307 228 228 228 228 66 66 154 154 154 154 154 119 36 267 267 267 267 267 267
 248 248 248 248 333 333 333 333 307 307 307 307 228 228 186 186 186 154 154 154
 154 154 119 119 267 267 267 267 267 267 248 248 248 248 333 333 333 333 317 317
 307 307 307 307 186 186 186 154 154 154 154 119 119 119 267 267 267 267 267 267
 248 248 248 248 333 333 333 317 317 317 317 317 307 307 186 186 186 186 154 154
 119 119 57 57 57 267 267 267 267 267 324 324 324 324 169 169 169 317 317 317
 317 317 317 24 24 24 24 24 119 119 119 119 57 57 57 57 267 267 267 267
 324 324 324 324 169 169 169 317 317 317 317 317 317 24 24 24 24 24 258 258
 258 119 57 57 57 57 176 176 324 324 324 324 324 324 169 169 169 317 317 317
 317 317 317 24 24 24 24 24 392 392 392 392 57 57 57 57 176 265 265 324
 324 324 324 324 169 169 169 169 317 317 317 317 317 24 24 24 24 392 392 392
 392 392 392 95 95 95 265 265 265 324 324 324 324 338 338 338 338 338 338 317
 317 122 122 24 24 24 24 392 392 392 392 392 392 95 95 95 265 265 265 265
 91 324 338 338 338 338 338 338 144 144 144 122 122 122 24 39 39 39 392 392
 392 392 392 95 95 95 95 265 265 265 91 91 338 338 338 338 338 338 144 144
 144 122 122 122 122 39 39 39 39 392 392 392 392 95 95 95 315 1 91 91
 91 278 278 338 338 338 338 338 144 144 144 122 122 189 189 39 39 39 39 381
 392 148 72 72 315 315 315 315 91 91 278 278 278 338 338 338 338 338 252 252
 252 252 189 282 282 282 381 381 381 381 148 148 72 72 72 315 315 315 91 91
 278 278 278 338 338 338 226 226 226 252 252 282 282 282 282 282 381 381 381 381
 148 148 72 72 72 315 315 315 315 91 278 278 278 43 43 43 226 226 226 271
 271 282 282 282 282 282 318 318 318 148 148 148 72 72 72 198 198 198 289 289
 82 82 20 43 43 43 226 226 226 271 271 282 282 282 282 326 318 318 318 75
 75 75 148 72 72 198 289 289 289 289 82 82 82 323 43 43 226 226 271 271
 271 326 326 326 326 326 76 76 76 75 75 75 148 72 72 289 289 289 289 289
 161 161 323 323 323 323 125 125 271 271 271 326 326 326 326 326 76 76 76 76
 75 75 75 72 289 289 289 289 289 161 161 161 161 323 323 323 125 125 125 271
 271 326 326 405 405 326 76 76 76 76 75 75 332 340 340 340 289 289 161 161
 161 161 161 323 323 323 125 125 125 271 271 331 331 331 331 331 110 110 110 110
 110 394 394 340 340 340 16 16 161 161 161 161 129 323 266 266 266 125 125 271
 331 331 331 331 331 110 110 110 110 110 110 394 394 340 281 281 281 16 16 161
 400 129 129 129 266 266 266 266 266 15 331 331 331 331 331 110 110 110 110 110
 394 394 394 394 360 360 281 281 400 400 400 129 129 129 266 266 266 266 266 15
 5 5 5 5 5 5 110 110 110 394 394 394 394 394 281 281 281 281 400 400
 80 129 129 129 266 266 266 266 266 5 5 5 5 5 5 5 5 355 355 355
 394 394 394 281 281 281 281 281 400 400 80 129 129 13 266 266 266 164 164 270
 270 5 5 5 5 5 5 355 355 355 312 312 312 312 281 281 281 80 80 80
 80 242 242 13 13 266 164 164 164 270 270 270 270 5 5 5 5 355 355 355
 312 312 312 312 312 281 281 80 80 80 280 280 280 280 13 164 164 164 164 164
 270 270 270 270 5 5 5 355 355 312 312 312 312 312 312 267 267 267 80 80
 280 280 280 280 260 260 164 164 164 164 270 270 270 270 5 66 66 66 193 312
 312 312 312 312 312 267 267 267 267 280 280 280 280 280 260 389 164 164 164 164
 270 270 270 270 66 66 66 66 66 312 312 312 312 312 267 267 267 267 267 280
 280 280 280 280 389 389 389 389 22 22 22 22 228 228 66 66 66 66 66 154
 154 119 119 119 267 267 267 267 267 267 267 280 280 389 389 389 389 389 22 22
 22 22 228 228 203 66 66 66 66 119 119 119 119 119 267 267 267 267 267 267
 267 255 104 104 389 389 389 389 22 22 22 22 228 228 203 203 66 66 119 119
 119 119 119 119 267 267 267 267 267 267 255 255 104 104 104 389 389 317 317 317
 317 317 287 203 203 203 203 119 119 119 119 119 119 119 119 267 267 267 267 267
 248 255 104 104 104 333 333 317 317 317 317 317 287 203 203 203 24 222 119 119
 119 119 119 57 57 267 267 267 267 267 324 324 324 104 104 169 317 317 317 317
 317 317 317 317 24 24 24 24 119 119 119 119 57 57 57 314 314 314 267 267
 324 324 324 324 169 169 169 317 317 317 317 317 317 24 24 24 24 24 258 258
 258 119 57 57 57 314 314 314 324 324 324 324 324 324 169 169 169 317 317 317
 317 317 317 24 24 24 24 24 258 258 258 258 57 57 57 314 314 314 324 324
 324 324 324 324 338 338 338 317 317 317 317 85 85 24 24 24 24 392 392 392
 392 392 392 95 95 95 95 265 265 324 324 324 324 338 338 338 338 338 338 85
 85 85 85 85 24 24 24 392 392 392 392 392 392 95 95 95 95 265 265 265
 91 91 338 338 338 338 338 338 338 144 85 85 85 85 269 269 39 39 392 392
 392 392 392 95 95 95 95 95 265 91 91 91 338 338 338 338 338 338 144 144
 144 85 189 189 269 269 39 39 39 392 392 392 95 95 95 95 315 315 91 91
 91 278 278 338 338 338 338 338 338 144 144 189 189 189 189 269 39 39 39 392
 392 72 72 72 315 315 315 315 91 91 91 278 278 338 338 338 338 338 338 252
 252 189 189 189 189 189 318 318 318 381 72 72 72 72 315 315 315 315 315 91
 278 278 278 338 338 338 226 226 226 226 282 282 282 189 282 282 318 318 318 318
 148 72 72 72 72 315 315 315 315 91 278 278 20 20 43 338 226 226 226 271
 271 282 282 282 282 282 318 318 318 318 148 72 72 72 72 315 315 289 289 289
 82 82 20 20 20 43 226 226 226 271 89 282 282 282 282 282 318 318 318 318
 75 75 72 72 72 289 289 289 289 289 82 82 82 20 323 323 226 226 271 271
 89 89 326 326 326 326 76 76 76 75 75 75 72 72 289 289 289 289 289 289
 161 82 20 323 323 323 125 125 125 89 89 89 405 405 405 405 76 76 76 76
 332 332 332 332 289 289 289 289 289 161 161 161 161 323 323 323 125 125 125 89
 89 89 405 405 405 405 76 76 76 76 332 332 332 332 360 289 289 289 161 161
 161 161 161 323 323 323 125 125 125 89 89 331 331 331 405 405 110 110 110 110
 332 332 332 332 360 360 360 289 161 161 161 161 161 323 323 266 266 125 125 89
 331 331 331 331 331 110 110 110 110 110 332 394 394 360 360 360 360 360 161 161
 400 161 161 266 266 266 266 266 15 15 5 5 5 5 5 5 238 238 238 34
 34 34 34 34 360 360 360 360 400 400 400 129 129 266 266 266 266 266 15 15
 5 5 5 5 5 5 5 355 355 34 34 34 34 34 34 360 360 281 400 400
 400 400 13 13 266 266 266 266 15 15 5 5 5 5 5 5 5 355 355 355
 34 34 34 34 34 281 281 400 400 400 80 13 13 13 13 13 266 164 164 270
 270 5 5 5 5 5 5 355 355 355 312 312 312 34 34 281 281 400 400 400
 80 13 13 13 13 13 164 164 164 270 270 270 270 5 5 5 5 355 355 355
 312 312 312 312 312 281 281 80 80 80 280 280 280 13 13 13 164 164 164 164
 270 270 270 270 5 5 355 355 355 312 312 312 312 312 312 44 267 267 80 80
 280 280 280 280 13 13 164 164 164 164 270 270 270 270 5 66 66 355 355 312
 312 312 312 312 312 44 267 267 267 280 280 280 280 280 389 389 389 164 164 164
 270 270 270 270 66 66 66 66 66 312 312 312 312 312 44 44 267 267 267 280
 280 280 280 280 389 389 389 389 164 22 22 22 22 203 66 66 66 66 66 119
 119 119 119 119 267 267 267 267 267 280 280 280 280 389 389 389 389 389 22 22
 22 22 22 203 203 203 66 66 66 119 119 119 119 119 267 267 267 267 267 267
 255 255 104 104 389 389 389 389 22 22 22 22 22 203 203 203 66 66 119 119
 119 119 119 119 119 267 267 267 267 267 255 255 104 104 104 389 389 317 317 22
 22 22 287 203 203 203 203 66 119 119 119 119 119 119 119 314 267 267 267 255
 255 255 104 104 104 389 317 317 317 317 317 287 287 287 203 203 222 222 222 119
 119 119 119 119 314 314 314 314 267 255 407 407 407 104 104 107 317 317 317 317
 317 317 287 203 203 203 222 222 222 119 119 119 119 119 314 314 314 314 314 255
 407 407 407 407 407 107 107 317 317 317 317 317 317 203 203 24 160 222 258 258
 258 119 119 314 314 314 314 314 314 407 407 407 407 407 407 107 107 107 317 317
 317 317 85 85 24 24 160 160 258 258 258 258 119 314 314 314 314 314 366 324
 407 407 407 407 338 338 107 107 317 85 85 85 85 85 24 160 160 160 258 258
 258 258 95 95 95 314 314 219 219 219 219 407 407 338 338 338 338 338 85 85
 85 85 85 85 24 160 160 392 392 392 392 392 95 95 95 95 95 219 219 219
 91 91 338 338 338 338 338 338 85 85 85 85 85 85 269 269 269 39 392 392
 392 392 95 95 95 95 95 315 219 219 91 91 338 338 338 338 338 338 338 85
 85 85 85 189 269 269 269 39 39 392 392 392 72 95 315 315 315 315 91 91
 91 94 94 338 338 338 338 338 338 85 85 189 189 189 189 269 269 39 109 109
 109 72 72 72 315 315 315 315 315 91 94 94 94 338 338 338 338 338 338 85
 85 189 189 189 189 189 318 318 109 109 109 72 72 72 315 315 315 315 2 2
 2 94 94 94 338 338 226 226 226 226 189 189 189 189 189 189 318 318 318 109
 109 72 72 72 315 315 315 315 2 2 2 2 20 20 20 226 226 226 226 226
 89 282 282 282 282 318 318 318 318 318 109 72 72 72 315 315 315 289 2 2
 82 82 20 20 20 20 226 226 226 89 89 89 282 282 282 318 318 318 318 318
 75 72 72 72 315 289 289 289 289 2 82 82 20 20 20 391 391 226 89 89
 89 89 89 405 405 318 318 318 318 318 75 75 72 385 289 289 289 289 289 289
 161 20 20 20 323 391 391 391 89 89 89 89 405 405 405 405 76 76 76 76
 332 332 332 332 289 289 289 289 289 161 161 161 20 323 323 391 391 391 89 89
 89 89 405 405 405 405 76 76 76 76 332 332 332 332 360 360 289 289 161 161
 161 161 161 323 323 391 391 391 89 89 89 89 405 405 405 405 238 238 238 238
 332 332 332 360 360 360 360 360 161 161 161 161 161 323 323 391 391 391 89 89
 89 331 331 405 405 238 238 238 238 238 34 34 34 360 360 360 360 360 161 161
 400 161 161 305 305 266 305 15 15 15 15 5 5 5 5 93 238 238 238 34
 34 34 34 34 360 360 360 360 400 400 400 400 400 266 266 266 266 15 15 15
 15 5 5 5 5 93 93 238 34 34 34 34 34 34 34 360 360 400 400 400
 400 400 13 13 13 266 305 15 15 15 15 5 5 5 5 5 93 355 355 34
 34 34 34 34 34 34 281 400 400 400 400 13 13 13 13 13 13 164 15 270
 270 270 5 5 5 5 5 355 355 355 34 34 34 34 34 34 34 400 400 400
 280 13 13 13 13 13 164 164 164 270 270 270 270 270 5 5 5 355 355 355
 312 312 312 312 34 34 195 21 21 21 280 280 13 13 13 13 164 164 164 164
 270 270 270 270 270 5 355 355 355 355 312 312 312 312 312 44 195 195 21 21
 280 280 280 13 13 13 164 164 164 164 270 270 270 270 270 66 66 355 355 312
 312 312 312 312 44 44 195 195 195 280 280 280 280 280 389 389 164 164 164 164
 164 270 270 270 66 66 66 66 66 312 312 312 312 44 44 44 195 195 195 280
 280 280 280 280 389 389 389 164 164 22 22 22 22 203 203 66 66 66 66 66
 119 3 119 44 44 44 44 195 267 280 280 280 280 389 389 389 389 163 22 22
 22 22 22 203 203 203 66 66 66 119 119 119 119 119 44 44 267 267 267 267
 255 255 255 104 389 389 389 163 22 22 22 22 203 203 203 203 203 212 119 119
 119 119 119 119 119 267 267 267 267 255 255 255 255 104 104 389 389 37 37 22
 22 22 203 203 203 203 212 212 222 119 119 119 119 119 314 314 314 314 267 255
 255 255 255 104 104 104 37 37 37 37 37 287 287 203 203 203 222 222 222 222
 119 119 119 119 314 314 314 314 314 255 407 407 407 407 104 107 107 37 37 37
 37 317 203 203 203 203 222 222 222 222 119 119 119 314 314 314 314 314 314 255
 407 407 407 407 407 107 107 107 37 37 37 317 203 203 203 160 160 222 222 258
 258 119 119 314 314 314 314 314 314 407 407 407 407 407 407 107 107 107 107 317
 85 85 85 85 160 160 160 160 258 258 258 258 119 314 314 314 314 314 366 366
 407 407 407 407 407 107 107 107 107 85 85 85 85 85 160 160 160 160 258 258
 258 258 90 90 90 90 90 219 219 219 219 407 407 407 338 338 107 107 85 85
 85 85 85 85 85 160 160 160 392 392 392 392 90 90 90 90 90 219 219 219
 219 219 407 338 338 338 338 338 85 85 85 85 85 85 269 269 269 160 392 392
 392 392 90 90 90 90 90 219 219 219 94 94 94 338 338 338 338 338 85 85
 85 85 85 85 269 269 269 109 109 109 109 30 30 315 315 315 315 315 219 219
 94 94 94 94 338 338 338 338 85 85 85 85 189 189 189 269 269 109 109 109
 109 30 30 315 315 315 315 315 2 2 94 94 94 94 338 338 338 338 338 85
 85 189 189 189 189 189 318 109 109 109 109 30 30 315 315 315 315 315 2 2
 2 94 94 94 126 126 126 226 226 85 189 189 189 189 189 189 318 318 109 109
 109 30 72 72 315 315 315 315 2 2 2 2 20 20 126 126 126 126 226 89
 89 89 189 189 189 318 318 318 318 109 109 72 72 72 315 315 315 2 2 2
 2 20 20 20 20 126 126 226 89 89 89 89 89 89 282 318 318 318 318 318
 109 385 385 385 385 289 289 289 289 2 2 20 20 20 20 391 391 391 89 89
 89 89 89 89 405 318 318 318 318 318 332 385 385 385 385 289 289 289 289 289
 161 20 20 20 391 391 391 391 89 89 89 89 89 405 405 405 358 358 358 358
 332 332 385 385 385 289 289 289 289 161 161 161 20 20 391 391 391 391 89 89
 89 89 405 405 405 405 358 358 358 358 332 332 332 385 385 360 289 289 161 161
 161 161 161 391 391 391 391 391 89 89 89 89 405 405 405 238 238 238 238 238
 332 332 332 332 360 360 360 289 161 161 161 161 161 391 391 391 391 391 89 89
 89 89 405 405 405 238 238 238 238 238 34 34 34 34 360 360 360 360 161 161
 400 161 305 305 305 305 305 15 15 15 15 15 5 93 93 93 93 238 238 34
 34 34 34 34 34 175 175 175 400 400 400 400 305 305 305 305 305 15 15 15
 15 15 5 5 93 93 93 93 34 34 34 34 34 34 34 175 175 400 400 400
 400 371 13 13 305 305 305 15 15 15 15 5 5 5 93 93 93 93 34 34
 34 34 34 34 34 34 175 400 400 400 371 371 13 13 13 13 13 15 15 15
 270 270 5 5 5 93 93 355 355 355 34 34 34 34 34 34 34 21 21 21
 21 371 13 13 13 13 13 164 164 270 270 270 270 270 5 5 355 355 355 355
 34 34 34 34 34 34 21 21 21 21 21 280 13 13 13 13 164 164 164 270
 270 270 270 270 270 92 167 355 355 355 312 312 312 312 44 44 21 21 21 21
 280 280 280 13 13 13 164 164 164 164 270 270 270 270 92 92 92 66 355 312
 312 312 312 44 44 44 195 195 195 21 280 280 280 280 13 163 163 164 164 164
 164 270 270 92 92 92 66 66 66 3 3 3 3 44 44 44 195 195 195 21
 280 280 280 280 389 163 163 163 163 22 22 22 203 203 203 66 66 66 66 3
 3 3 3 44 44 44 44 195 195 280 255 255 255 389 389 163 163 163 163 22
 22 22 203 203 203 203 66 66 66 3 3 3 3 44 44 44 44 267 267 255
 255 255 255 255 389 163 163 163 163 22 22 22 203 203 203 203 203 212 212 119
 3 3 119 119 44 314 314 314 267 255 255 255 255 255 104 163 163 163 37 37
 22 203 203 203 203 203 212 212 212 222 119 119 119 119 314 314 314 314 314 255
 255 255 255 255 104 163 163 37 37 37 37 203 203 203 203 203 222 222 222 222
 119 119 119 314 314 314 314 314 314 255 407 407 407 407 155 107 107 37 37 37
 37 37 203 203 203 203 222 222 222 222 222 119 119 314 314 314 314 314 314 255
 407 407 407 407 407 107 107 107 37 37 37 37 203 203 203 160 160 222 222 341
 341 341 314 314 314 314 314 314 366 366 407 407 407 407 407 107 107 107 107 37
 37 85 85 85 160 160 160 160 341 341 341 341 314 314 314 314 314 314 366 366
 407 407 407 407 407 107 107 107 107 85 85 85 85 85 160 160 160 160 341 341
 341 341 341 90 90 90 90 219 219 219 219 407 407 407 407 107 107 107 85 85
 85 85 85 85 160 160 160 160 341 341 341 341 90 90 90 90 90 219 219 219
 219 219 407 407 338 338 338 107 85 85 85 85 85 85 269 160 160 160 341 341
 341 341 90 90 90 90 90 219 219 219 94 94 94 94 338 338 338 338 85 85
 85 85 85 85 269 269 269 109 109 109 109 109 30 90 90 90 315 315 219 219
 94 94 94 94 338 338 338 338 85 85 85 85 85 189 241 269 269 109 109 109
 109 30 30 315 315 315 315 315 2 2 94 94 94 94 94 126 126 126 85 85
 85 189 189 241 241 241 109 109 109 109 109 30 30 315 315 315 315 2 2 2
 2 94 94 94 126 126 126 126 126 85 241 241 241 241 189 189 318 318 109 109
 109 30 30 72 315 315 315 2 2 2 2 2 94 20 126 126 126 126 126 89
 89 89 89 241 189 318 318 318 318 109 109 30 72 315 315 315 315 2 2 2
 2 2 20 20 126 126 126 126 89 89 89 89 89 89 89 318 318 318 318 318
 109 385 385 385 385 385 289 2 2 2 2 20 20 20 20 391 391 391 89 89
 89 89 89 89 89 296 358 318 318 112 385 385 385 385 385 385 289 289 289 2
 161 20 20 20 391 391 391 391 89 89 89 89 89 89 405 296 358 358 358 358
 332 385 385 385 385 385 289 289 289 161 161 161 20 391 391 391 391 391 89 89
 89 17 89 405 405 296 358 358 358 358 332 332 332 385 175 175 289 289 161 161
 161 161 161 391 391 391 391 391 89 89 89 17 17 405 405 238 238 238 238 238
 34 34 34 34 175 175 175 161 161 161 161 161 161 391 391 391 391 391 15 15
 191 191 405 405 93 238 238 238 238 238 34 34 34 34 175 175 175 175 161 161
 49 49 305 305 305 305 305 305 15 191 191 377 351 351 93 93 93 238 238 34
 34 34 34 34 175 175 175 175 49 49 49 371 305 305 305 305 305 305 15 15
 15 377 351 351 93 93 93 93 34 34 34 34 34 34 34 175 175 175 49 49
 371 371 371 305 305 305 305 305 15 15 15 377 351 351 93 93 93 93 34 34
 34 34 34 34 34 175 175 175 21 21 371 371 371 13 13 305 305 305 15 377
 377 377 377 377 93 93 93 93 34 34 34 34 34 34 34 34 21 21 21 21
 21 371 371 13 13 13 13 164 377 377 377 270 270 270 167 167 167 167 355 34
 34 34 34 34 34 34 21 21 21 21 21 345 13 13 13 13 13 164 164 270
 270 270 270 270 167 167 167 167 355 355 312 312 312 44 44 44 21 21 21 21
 21 345 345 13 13 13 163 163 164 164 270 270 270 92 92 92 92 167 217 217
 312 312 312 44 44 44 294 294 21 21 345 345 345 345 163 163 163 163 163 163
 164 270 92 92 92 92 92 66 217 3 3 3 3 44 44 44 294 294 294 21
 345 345 345 345 163 163 163 163 163 163 253 253 253 203 92 92 92 66 66 3
 3 3 3 44 44 44 44 294 294 21 345 345 345 163 163 163 163 163 163 163
 253 253 253 203 203 203 203 66 66 3 3 3 3 44 44 44 44 294 294 255
 255 255 255 255 163 163 163 163 163 163 253 253 203 203 203 203 203 212 212 3
 3 3 3 119 353 353 353 353 140 255 255 255 255 255 163 163 163 163 163 37
 37 203 203 203 203 203 203 212 212 222 3 3 8 314 353 353 353 314 140 255
 255 255 255 255 155 155 155 37 37 37 37 203 203 203 203 203 203 222 222 222
 8 8 8 314 314 314 314 314 140 140 140 407 407 407 155 155 155 37 37 37
 37 37 203 203 203 203 222 222 222 341 341 8 8 314 314 314 314 314 140 140