# vtk DataFile Version 2.0
Data set from IO Version 6.4.197.9a0dee2
ASCII

DATASET RECTILINEAR_GRID
DIMENSIONS 31 31 31
X_COORDINATES 31 float
-5.850000 5.850000 17.549999 29.249998 40.950001 52.650002 64.349998 76.050003 87.750000 99.449997 111.150002 122.849998 134.549988 146.249985 157.949997 169.649994 181.349991 193.049988 204.749985 216.449997 228.149994 
239.849991 251.549988 263.250000 274.949982 286.649994 298.349976 310.049988 321.750000 333.449982 345.149994 
Y_COORDINATES 31 float
-5.850000 5.850000 17.549999 29.249998 40.950001 52.650002 64.349998 76.050003 87.750000 99.449997 111.150002 122.849998 134.549988 146.249985 157.949997 169.649994 181.349991 193.049988 204.749985 216.449997 228.149994 
239.849991 251.549988 263.250000 274.949982 286.649994 298.349976 310.049988 321.750000 333.449982 345.149994 
Z_COORDINATES 31 float
-5.850000 5.850000 17.549999 29.249998 40.950001 52.650002 64.349998 76.050003 87.750000 99.449997 111.150002 122.849998 134.549988 146.249985 157.949997 169.649994 181.349991 193.049988 204.749985 216.449997 228.149994 
239.849991 251.549988 263.250000 274.949982 286.649994 298.349976 310.049988 321.750000 333.449982 345.149994 
CELL_DATA 27000
SCALARS FeatureIds int 1
LOOKUP_TABLE default
 299 299 287 287 287 287 287 287 287 225 225 136 136 136 136 136 197 197 197 197
 57 57 57 57 389 389 402 402 402 299 402 402 287 287 287 287 287 287 225 225
 225 225 136 136 136 197 197 197 197 197 57 57 127 127 389 389 389 402 402 402
 402 402 287 287 287 77 21 225 225 225 225 225 136 136 136 197 197 197 197 197
 197 127 127 127 389 389 389 389 402 402 402 294 294 231 231 77 21 225 225 225
 225 225 136 136 131 197 197 197 197 248 248 127 127 127 389 389 389 389 402 402
 294 294 231 231 231 231 231 225 225 225 225 225 225 131 131 131 197 197 248 248
 248 50 50 50 389 389 389 389 135 135 294 294 231 231 231 231 231 231 225 225
 316 316 316 131 131 131 131 248 248 248 248 50 50 107 107 107 389 246 246 246
 294 294 208 208 231 231 231 231 225 225 316 316 316 131 131 131 131 248 248 248
 248 50 50 107 107 107 107 246 246 246 9 9 9 208 231 231 231 231 306 306
 306 306 281 281 281 131 91 91 248 248 248 222 107 107 107 107 107 107 246 246
 286 9 9 336 336 336 336 336 306 306 306 306 281 281 281 281 91 91 91 91
 222 222 222 107 107 315 315 315 315 257 286 286 9 336 336 336 336 336 306 306
 306 306 281 281 281 281 91 91 91 91 222 222 222 222 315 315 315 315 257 257
 286 286 355 355 355 355 355 355 306 306 306 306 281 281 281 60 91 91 91 91
 222 222 222 222 315 315 315 257 257 257 257 257 257 355 355 355 355 355 213 213
 213 306 281 281 60 60 60 91 91 91 222 222 222 222 315 315 257 257 257 257
 257 257 257 355 355 355 355 355 213 213 213 213 281 60 60 60 60 91 91 91
 222 377 377 89 89 257 257 257 257 257 257 257 257 355 355 355 355 233 213 213
 213 213 213 60 60 60 60 91 91 377 377 377 377 89 89 89 257 257 257 257
 257 257 257 257 408 408 233 233 213 213 213 213 213 60 60 60 60 307 307 307
 377 377 377 89 89 89 257 257 257 257 257 257 328 328 328 233 233 233 233 213
 213 213 360 360 360 360 360 307 307 307 377 377 89 89 89 89 405 405 257 257
 257 328 328 328 328 382 233 233 233 213 85 360 360 360 360 360 360 307 307 307
 89 89 89 89 89 405 405 405 405 405 405 328 328 328 382 382 382 233 233 85
 85 360 360 360 360 360 18 18 18 307 350 350 89 89 89 405 405 405 405 405
 405 328 328 328 328 382 382 233 85 85 85 360 360 360 360 360 18 18 18 18
 350 350 89 89 405 405 405 405 405 405 328 328 328 328 150 150 150 150 85 85
 85 360 360 360 360 360 18 18 18 18 120 350 120 120 125 125 125 125 125 125
 125 328 328 328 150 150 150 150 85 85 85 360 360 360 199 199 18 18 18 18
 120 120 120 120 125 125 125 125 125 125 125 125 328 328 150 150 150 150 267 267
 267 267 360 199 199 199 199 18 58 58 120 120 120 120 125 125 125 125 125 125
 125 125 214 214 214 214 214 267 267 267 267 267 351 351 200 200 200 58 58 58
 58 120 120 120 125 125 125 125 125 125 125 214 214 214 214 214 214 267 267 267
 267 267 351 351 200 200 200 58 58 58 58 58 120 120 125 125 125 125 125 125
 301 214 214 214 214 214 214 267 267 267 267 267 351 351 351 200 200 58 58 58
 58 57 57 94 94 125 125 125 125 125 301 301 214 214 214 214 214 267 267 267
 267 267 351 351 351 200 200 58 58 57 57 57 57 94 94 94 94 125 301 301
 301 301 214 214 214 287 287 249 249 249 249 249 351 351 351 351 188 188 57 57
 57 57 57 94 94 94 94 301 301 301 301 301 287 287 287 287 287 249 249 249
 249 249 351 351 351 351 188 188 57 57 57 57 57 94 94 94 94 301 301 301
 301 301 287 287 287 287 287 287 249 249 249 249 351 351 351 351 188 188 57 57
 57 57 57 94 94 94 94 301 301 301 299 299 287 287 287 287 287 287 249 249
 249 249 136 136 136 136 188 188 57 57 57 57 57 94 94 94 94 301 301 299
 402 402 287 287 287 287 287 287 287 287 225 81 136 136 136 136 197 197 197 197
 103 57 103 103 163 163 163 402 402 402 402 402 287 287 287 287 287 287 225 225
 225 225 136 136 136 197 197 197 197 197 103 103 103 103 389 389 389 402 402 402
 402 402 294 287 77 77 77 225 225 225 225 225 136 136 136 197 197 197 197 197
 197 127 127 127 389 389 389 402 402 402 402 294 294 231 77 77 77 225 225 225
 225 225 225 131 131 197 197 197 197 248 248 248 127 127 389 389 389 135 135 135
 294 294 294 231 231 231 231 231 225 225 225 165 165 131 131 131 197 197 248 248
 248 248 50 107 389 389 246 246 135 135 294 294 294 231 231 231 231 231 225 165
 165 165 165 131 131 131 131 248 248 248 248 248 50 107 107 107 246 246 246 246
 294 294 294 231 231 231 231 231 165 165 165 165 165 131 131 131 131 248 248 248
 248 248 107 107 107 107 107 246 246 246 9 9 9 9 231 231 231 231 231 306
 306 306 281 131 131 131 131 248 248 248 248 248 107 107 107 107 107 246 246 246
 286 9 9 9 336 336 336 336 306 306 306 306 281 281 281 281 91 91 91 248
 248 222 107 107 107 315 315 315 286 286 286 286 9 9 336 336 336 336 306 306
 306 306 281 281 281 60 91 91 91 91 222 222 107 107 315 315 315 315 286 286
 286 286 286 355 336 336 336 336 137 137 306 306 281 281 60 60 60 91 91 91
 222 222 222 222 315 315 315 286 286 286 286 286 286 355 355 355 355 355 137 137
 137 137 281 60 60 60 60 91 91 91 222 222 222 222 315 315 315 257 286 286
 257 257 257 355 355 355 355 355 213 213 213 213 213 60 60 60 60 60 91 263
 377 377 377 377 315 315 257 257 257 257 257 257 257 355 355 355 355 213 213 213
 213 213 213 60 60 60 60 263 263 263 377 377 377 377 89 89 257 257 257 257
 257 257 257 257 408 408 233 233 213 213 213 213 360 360 60 60 60 263 263 263
 377 377 377 377 89 89 257 257 257 257 257 257 328 328 382 382 233 233 213 213
 213 360 360 360 360 360 360 263 263 263 377 377 377 89 89 405 405 405 405 257
 405 328 328 328 382 382 382 233 233 213 360 360 360 360 360 360 360 64 64 64
 377 377 377 89 89 405 405 405 405 405 405 328 328 328 382 382 382 382 382 85
 360 360 360 360 360 360 360 64 64 64 64 64 89 89 405 405 405 405 405 405
 405 328 328 328 382 382 382 382 85 85 360 360 360 360 360 360 360 18 64 64
 64 350 89 89 405 405 405 405 405 405 187 187 328 328 382 382 382 382 85 85
 85 360 360 360 360 360 18 18 18 64 64 204 120 120 405 405 405 125 125 125
 125 187 187 328 150 150 150 150 85 267 267 360 360 360 360 360 108 108 108 108
 204 204 120 120 125 125 125 125 125 125 125 187 187 328 150 150 150 166 267 267
 267 267 360 351 199 199 108 108 108 108 204 204 120 120 125 125 125 125 125 125
 125 125 125 214 214 214 214 267 267 267 267 267 351 351 351 351 108 108 108 108
 58 120 120 120 125 125 125 125 125 125 125 125 214 214 214 214 214 267 267 267
 267 267 351 351 351 351 108 108 108 58 58 58 120 120 125 125 125 125 125 125
 125 125 214 214 214 214 214 267 267 267 267 267 351 351 351 351 200 58 58 58
 58 57 57 94 94 125 125 125 125 125 301 301 214 214 214 214 214 267 267 267
 267 351 351 351 351 351 351 188 188 57 57 57 57 94 94 94 94 13 13 13
 301 301 287 287 287 287 287 249 249 249 249 249 351 351 351 351 188 188 188 57
 57 57 57 94 94 94 94 13 13 301 301 301 287 287 287 287 287 249 249 249
 249 249 351 351 351 351 188 188 188 57 57 57 57 94 94 94 94 301 301 301
 301 287 287 287 287 287 287 287 249 249 249 249 351 351 351 351 188 188 188 57
 57 57 57 94 94 94 94 94 301 301 299 287 287 287 287 287 287 287 249 249
 249 249 351 351 351 351 188 188 188 57 57 57 57 94 94 94 94 94 301 299
 402 402 287 287 287 287 287 287 287 287 81 81 81 81 81 197 197 197 197 103
 103 103 103 103 163 163 163 163 402 402 402 402 287 287 287 287 287 287 287 225
 81 81 81 81 197 197 197 197 197 197 103 103 103 103 163 163 163 402 402 402
 402 294 294 287 287 77 287 287 225 225 81 81 81 81 197 197 197 197 197 197
 103 103 103 103 8 135 135 135 135 402 294 294 294 294 231 77 231 231 225 225
 165 165 81 131 131 197 197 197 197 248 248 248 103 8 8 135 135 135 135 135
 294 294 294 294 231 231 231 231 165 165 165 244 244 131 131 131 197 197 248 248
 248 248 248 107 107 246 246 246 135 135 294 294 294 294 231 231 231 231 165 165
 165 244 244 131 131 131 131 248 248 248 248 248 107 107 107 246 246 246 246 135
 294 294 294 9 231 231 231 231 165 165 165 165 165 131 131 131 131 248 248 248
 248 248 107 107 107 107 246 246 246 246 294 294 9 9 9 231 231 231 165 165
 165 165 165 131 131 131 131 248 248 35 35 248 107 107 107 107 246 246 246 246
 286 9 9 9 9 336 336 336 165 165 306 306 281 281 145 145 145 3 35 35
 35 248 107 107 107 315 315 246 246 286 286 286 9 9 336 336 336 336 137 137
 306 306 281 281 145 145 145 3 3 3 35 43 107 107 315 315 315 286 286 286
 286 286 286 9 336 336 336 336 137 137 137 137 281 281 60 60 60 3 3 3
 222 36 36 315 315 315 315 286 286 286 286 286 286 286 355 355 355 137 137 137
 137 137 137 60 60 60 60 3 3 263 36 36 36 315 315 315 315 286 286 286
 286 286 286 286 355 355 355 137 137 137 137 137 137 60 60 60 60 60 263 263
 377 377 377 377 377 315 19 286 286 286 257 257 257 255 275 275 279 213 213 213
 213 213 213 60 60 60 60 263 263 263 377 377 377 377 377 19 19 257 257 257
 257 257 255 255 255 279 279 279 213 213 213 213 360 360 360 360 263 263 263 263
 263 377 377 377 89 89 405 257 257 257 257 257 255 255 382 382 279 279 279 213
 213 360 360 360 360 360 360 263 263 263 263 377 377 377 89 405 405 405 405 405
 405 405 328 328 382 382 382 279 279 279 360 360 360 360 360 360 360 64 64 64
 64 377 377 377 405 405 405 405 405 405 405 187 187 328 382 382 382 279 279 279
 360 360 360 360 360 360 360 64 64 64 64 64 89 89 405 405 405 405 405 405
 187 187 187 328 382 382 382 279 279 360 360 360 360 360 360 360 360 64 64 64
 64 64 89 405 405 405 405 405 405 405 187 187 187 187 238 238 238 238 238 360
 360 360 360 360 360 360 360 18 64 64 64 204 204 204 405 405 405 405 125 125
 187 187 187 187 238 238 238 166 166 166 166 360 360 360 360 360 108 108 108 108
 204 204 204 204 125 125 125 125 125 125 125 187 187 106 106 238 166 166 166 166
 166 166 351 351 351 338 108 108 108 108 204 204 204 204 125 125 125 125 125 125
 125 187 106 15 15 15 166 166 166 166 166 351 351 351 351 351 108 108 108 108
 204 204 204 204 125 125 125 125 125 125 125 106 15 15 15 15 166 166 166 267
 267 351 351 351 351 351 108 108 108 108 204 204 204 204 125 125 125 125 125 125
 125 106 15 15 15 15 15 267 267 267 267 351 351 351 351 351 108 108 108 58
 204 204 204 385 94 125 125 13 13 13 146 146 15 15 15 15 287 249 249 267
 267 351 351 351 351 351 188 188 188 188 57 57 57 94 94 94 13 13 13 13
 146 146 146 287 287 287 287 249 249 249 249 351 351 351 351 351 188 188 188 188
 57 57 57 94 94 94 94 13 13 13 146 146 146 287 287 287 287 249 249 249
 249 249 351 351 351 337 188 188 188 188 57 57 57 94 94 94 94 13 13 13
 146 146 287 287 287 287 287 287 249 249 249 249 351 351 351 337 188 188 188 188
 57 57 57 94 163 163 163 13 13 301 146 146 287 287 287 287 287 287 249 249
 249 249 351 351 351 337 188 188 188 188 57 57 57 94 163 163 163 163 163 299
 402 146 146 287 287 287 287 287 287 190 81 81 81 81 81 375 188 188 61 61
 103 103 103 103 163 163 163 163 402 402 402 146 294 287 287 287 287 287 287 81
 81 81 81 81 81 197 197 197 61 61 103 103 103 8 8 163 163 135 402 402
 402 294 294 294 287 201 287 287 287 81 81 81 81 81 81 197 197 197 197 61
 103 103 103 8 8 8 135 135 135 135 135 294 294 294 157 231 231 231 165 165
 165 165 81 81 131 197 197 197 197 248 248 8 8 8 8 8 135 135 135 135
 294 294 294 294 157 231 231 231 165 165 165 244 244 131 131 131 379 379 248 248
 248 248 8 8 8 246 246 135 135 135 294 294 294 294 157 231 231 165 165 165
 165 244 244 244 131 131 379 379 248 248 248 248 8 341 107 246 246 246 246 135
 294 294 157 157 157 231 231 165 165 165 165 165 244 244 131 131 379 379 248 35
 35 43 43 107 107 246 246 246 246 246 294 294 9 9 9 231 231 165 165 165
 165 165 165 165 131 131 3 3 35 35 35 43 43 107 107 107 246 246 246 246
 286 9 9 9 9 336 39 39 39 165 165 165 165 145 145 145 3 3 3 35
 43 43 43 107 107 107 315 246 246 286 286 286 9 9 9 336 39 39 39 137
 137 306 217 145 145 145 145 3 3 3 43 43 43 107 315 315 315 286 286 286
 286 286 286 9 336 336 39 39 137 137 137 137 137 145 145 145 3 3 3 3
 36 36 36 36 315 315 315 286 286 286 286 286 286 286 275 275 275 39 137 137
 137 137 137 217 60 60 3 3 3 3 36 36 36 36 36 315 286 286 286 286
 286 286 286 275 275 275 275 275 137 137 137 137 137 60 60 60 3 3 263 263
 36 36 36 36 36 19 19 286 286 286 196 196 196 255 275 275 279 279 279 213
 213 340 340 340 60 60 253 253 263 263 263 36 36 36 36 19 19 19 196 196
 196 196 255 255 255 279 279 279 279 279 340 340 340 340 360 360 253 263 263 263
 263 377 377 377 89 19 19 19 196 196 196 255 255 255 255 279 279 279 279 279
 340 340 340 360 360 360 360 263 263 263 263 25 25 25 405 405 405 405 196 196
 405 255 255 255 255 279 279 279 279 279 340 340 360 360 360 360 360 64 64 64
 64 25 25 25 405 405 405 405 405 405 187 187 187 255 238 238 279 279 279 279
 360 360 360 360 360 360 360 64 64 64 64 64 25 25 405 405 405 405 405 405
 187 187 187 238 238 238 238 238 279 279 360 360 360 360 360 360 360 170 64 64
 64 64 64 405 405 405 405 405 405 405 187 187 187 187 238 238 238 238 238 360
 360 360 360 360 360 360 360 170 170 64 64 204 204 204 405 405 405 405 125 187
 187 187 187 238 238 238 238 166 166 166 166 360 360 360 360 338 338 108 108 108
 204 204 204 204 204 125 125 125 125 125 187 187 187 106 106 238 166 166 166 166
 166 166 360 360 338 338 338 108 108 108 204 204 204 204 125 125 125 125 125 125
 125 106 106 106 106 106 166 166 166 166 166 185 351 351 351 338 108 108 108 108
 204 204 204 383 383 125 125 125 125 125 106 106 106 15 15 15 166 166 166 166
 185 185 351 351 351 351 108 108 108 108 204 204 383 383 385 125 125 125 125 125
 106 106 106 15 15 15 166 166 166 166 185 351 351 351 351 351 160 160 160 160
 204 204 385 385 385 385 385 13 13 13 146 146 106 106 15 15 15 166 249 267
 351 351 351 351 351 351 188 160 160 160 160 385 385 385 385 385 385 13 13 13
 146 146 146 106 287 287 287 249 249 249 249 351 351 351 351 337 188 188 188 188
 57 385 385 385 385 385 385 13 13 13 146 146 146 287 287 287 287 249 249 249
 249 351 351 351 351 337 188 188 188 188 57 57 385 385 385 385 385 13 13 6
 146 146 146 287 287 287 287 287 249 249 249 351 351 351 351 337 188 188 188 188
 57 57 385 385 163 163 163 163 13 6 146 146 146 287 287 287 287 287 249 249
 249 351 351 351 375 375 188 188 188 188 103 103 103 163 163 163 163 163 163 6
 40 146 146 287 201 201 201 256 190 190 59 81 81 311 375 375 375 61 61 61
 61 103 103 388 388 388 388 388 40 40 40 40 40 201 201 201 201 201 190 190
 81 81 81 81 179 375 375 61 61 61 61 103 103 8 8 388 388 388 40 40
 40 294 294 157 201 201 201 201 190 190 81 81 81 179 179 179 197 61 61 61
 61 103 8 8 8 8 135 135 135 135 135 294 294 157 157 157 157 157 165 165
 165 165 179 179 179 179 379 379 379 61 61 8 8 8 8 8 135 135 135 135
 294 294 294 157 157 157 157 157 165 165 165 244 244 179 179 379 379 379 379 379
 248 8 8 8 8 8 246 135 135 135 157 157 157 157 157 157 157 165 165 165
 165 244 244 28 28 379 379 379 379 379 43 43 341 341 341 246 246 246 246 135
 157 157 157 157 157 157 157 165 165 165 165 165 165 28 28 379 379 379 379 35
 43 43 43 341 341 246 246 246 246 246 157 157 157 157 157 157 39 39 165 165
 165 165 165 217 28 28 3 3 3 35 43 43 43 43 107 288 288 288 288 288
 286 157 157 157 157 39 39 39 39 39 165 165 217 217 217 145 3 3 3 35
 43 43 43 43 107 288 288 288 288 288 286 286 9 9 39 39 39 39 39 39
 217 217 217 217 217 145 3 3 3 3 43 43 43 43 315 288 288 288 286 286
 286 286 286 275 39 39 39 39 39 137 137 217 217 217 217 145 3 3 3 3
 36 36 36 36 36 315 315 286 286 286 286 286 286 275 275 275 275 39 137 137
 137 137 217 217 217 3 3 3 3 3 36 36 36 36 36 19 19 286 286 286
 196 196 196 275 275 275 275 275 137 137 137 137 340 217 217 3 3 3 3 36
 36 36 36 36 36 19 19 19 196 196 196 196 255 255 275 275 275 279 279 279
 340 340 340 340 340 253 253 253 253 263 36 36 36 36 36 19 19 19 196 196
 196 196 255 255 255 279 279 279 279 279 340 340 340 340 340 253 253 253 263 263
 25 25 25 25 25 19 19 19 196 196 196 255 255 255 255 279 279 279 279 279
 340 340 340 340 360 253 253 253 263 263 25 25 25 25 25 19 19 19 196 196
 396 396 255 255 255 279 279 279 279 279 340 340 340 360 360 360 253 253 64 64
 25 25 25 25 25 405 405 404 404 404 396 396 396 255 238 238 279 279 279 279
 340 360 360 360 360 360 360 64 64 64 64 25 25 25 405 405 405 404 404 404
 404 187 187 238 238 238 238 238 279 279 360 360 360 360 360 360 170 170 170 64
 64 64 383 383 171 171 171 404 404 404 187 187 187 238 238 238 238 238 238 406
 406 406 360 360 360 338 170 170 170 383 383 383 383 383 171 171 171 404 404 404
 187 187 187 238 238 238 238 238 166 166 166 406 360 360 338 338 338 170 170 383
 383 383 383 383 171 171 54 54 404 404 187 106 106 106 106 238 238 166 166 166
 166 185 185 338 338 338 338 338 108 383 383 383 383 383 171 171 54 54 54 404
 106 106 106 106 106 106 166 166 166 166 166 185 185 351 338 338 338 338 108 383
 383 383 383 383 383 125 54 54 125 125 106 106 106 106 15 15 166 166 166 166
 185 185 185 351 351 338 338 338 108 383 383 383 383 383 385 385 125 125 125 125
 106 106 106 106 15 15 261 166 166 166 185 185 351 351 351 351 160 160 160 160
 383 383 385 385 385 385 385 203 203 203 6 106 106 106 106 261 261 261 261 185
 185 351 351 351 351 351 160 160 160 160 160 385 385 385 385 385 385 203 203 6
 6 146 146 261 261 261 261 261 249 249 59 351 351 351 351 351 188 160 160 160
 160 385 385 385 385 385 385 203 6 6 146 146 146 146 261 287 261 249 249 59
 59 59 351 351 351 337 188 188 188 188 188 385 385 385 385 385 385 203 6 6
 146 146 146 287 287 287 256 256 256 59 59 59 59 351 375 375 188 188 188 188
 188 385 385 385 388 388 388 388 6 6 146 146 146 287 287 287 256 256 256 59
 59 59 311 311 375 375 375 188 188 61 61 103 385 388 388 388 388 388 6 6
 40 40 40 201 201 201 201 256 190 190 59 59 81 311 375 375 375 61 61 61
 61 61 103 388 388 388 388 388 40 40 40 40 40 201 201 201 201 201 190 190
 190 81 81 179 179 375 375 61 61 61 61 61 8 8 8 388 388 388 40 40
 40 40 157 157 201 201 201 201 190 190 190 179 179 179 179 179 179 61 61 61
 61 8 8 8 8 8 388 135 135 40 157 157 157 157 157 157 157 183 183 183
 165 179 179 179 179 179 379 379 379 61 61 8 8 8 8 8 135 135 135 135
 157 157 157 157 157 157 157 183 183 183 165 179 179 179 179 379 379 379 379 379
 61 8 8 8 8 8 246 135 135 135 157 157 157 157 157 157 157 183 183 183
 165 165 179 28 28 28 379 379 379 379 43 43 341 341 341 341 246 246 135 135
 157 157 157 157 157 157 157 183 183 183 165 165 28 28 28 28 379 379 379 43
 43 43 43 341 341 341 288 288 288 288 157 157 157 157 157 157 39 39 39 165
 165 217 217 28 28 28 3 3 3 43 43 43 43 43 341 288 288 288 288 288
 286 75 75 75 75 39 39 39 39 39 217 217 217 217 217 217 3 3 3 3
 43 43 43 43 43 288 288 288 288 288 286 75 75 75 75 39 39 39 39 39
 217 217 217 217 217 3 3 3 3 3 43 43 43 43 43 288 288 288 288 286
 286 286 75 75 75 39 39 39 39 39 217 217 217 217 217 3 3 3 3 3
 36 36 36 36 36 235 235 196 286 286 196 196 75 75 275 275 275 39 39 39
 217 217 217 217 217 3 3 3 3 3 36 36 36 36 36 23 196 196 196 196
 196 196 75 275 275 275 275 275 39 137 164 164 164 217 217 3 3 3 3 36
 36 36 36 36 36 23 19 19 196 196 196 196 255 275 275 275 275 279 279 279
 340 340 340 340 340 253 253 253 253 253 36 36 36 36 36 23 19 19 196 196
 196 196 255 255 255 279 279 279 279 279 340 340 340 340 340 253 253 253 253 25
 25 25 25 25 23 23 19 19 196 196 196 255 255 255 255 279 279 279 279 279
 340 340 340 340 360 253 253 253 253 25 25 25 25 25 25 23 19 19 196 196
 396 396 255 255 255 279 279 279 279 279 340 340 340 360 360 253 253 253 253 25
 25 25 25 25 25 23 404 404 404 404 396 396 396 255 238 238 279 279 279 279
 340 340 360 360 360 360 409 409 409 64 25 25 25 25 171 171 404 404 404 404
 404 396 396 238 238 238 238 238 279 279 406 406 360 360 360 360 170 170 170 64
 64 383 383 171 171 171 171 404 404 404 404 404 238 238 238 238 238 238 238 238
 406 406 406 360 338 338 170 170 170 170 383 383 383 171 171 171 171 404 404 404
 404 404 238 238 238 238 238 238 166 166 166 406 406 338 338 338 338 170 170 383
 383 383 383 383 171 171 171 54 404 404 404 106 106 106 238 238 238 166 166 166
 166 185 185 338 338 338 338 338 338 383 383 383 383 383 171 171 54 54 54 404
 106 106 106 106 106 106 166 166 166 166 166 185 185 338 338 338 338 338 338 383
 383 383 383 383 395 395 54 54 54 404 106 106 106 106 106 106 261 166 166 166
 185 185 185 185 338 338 338 338 96 96 383 383 383 383 385 395 395 395 54 404
 106 106 106 106 106 261 261 261 166 185 185 185 185 351 351 351 338 160 160 96
 383 383 385 385 385 385 203 203 203 203 106 106 106 106 261 261 261 261 261 185
 185 185 351 351 351 351 160 160 160 160 160 385 385 385 385 385 203 203 203 6
 6 146 261 261 261 261 261 261 261 59 59 59 351 351 351 351 188 160 160 160
 385 385 385 385 385 385 385 203 6 6 6 146 146 261 261 261 261 261 261 59
 59 59 59 351 351 351 188 188 188 156 156 378 378 385 385 385 385 203 6 6
 6 146 146 146 261 261 256 256 256 59 59 59 59 311 375 375 375 375 188 156
 156 378 378 385 388 388 388 388 6 6 146 146 146 146 287 201 256 256 256 59
 59 59 311 311 375 375 375 375 61 61 61 378 378 388 388 388 388 388 6 40
 40 40 40 201 201 201 201 256 190 190 59 59 59 311 375 375 375 375 61 61
 61 61 388 388 388 388 388 388 40 40 40 40 40 201 201 201 201 201 190 190
 190 179 179 179 179 179 179 61 61 61 61 61 8 8 8 388 388 388 40 40
 40 40 157 157 201 201 201 201 190 190 190 179 179 179 179 179 179 61 61 61
 61 8 8 8 8 8 388 388 40 40 40 157 157 157 157 157 201 183 183 183
 179 179 179 179 179 179 179 379 379 61 61 8 8 8 8 8 332 135 135 135
 157 157 157 157 157 334 334 183 183 183 183 179 179 179 179 179 379 379 379 379
 61 8 8 8 8 8 332 332 10 10 10 157 157 157 157 334 334 183 183 183
 183 179 179 28 28 28 379 379 379 379 43 43 341 341 341 332 332 332 10 10
 157 157 157 157 157 334 334 183 183 183 183 183 28 28 28 28 379 379 379 379
 43 43 43 341 341 332 288 288 288 10 157 157 157 157 157 157 39 39 39 183
 183 217 217 217 28 28 3 3 3 43 43 43 43 43 182 288 288 288 288 288
 173 75 75 75 75 39 39 39 39 39 217 217 217 217 217 217 3 3 3 3
 43 43 43 43 182 288 288 288 288 288 173 75 75 75 75 75 39 39 39 39
 217 217 217 217 217 217 3 3 3 3 43 43 43 43 182 288 288 235 288 173
 173 173 75 75 75 75 39 39 39 39 217 217 217 217 217 217 3 3 3 3
 43 36 36 36 36 235 235 235 235 173 173 173 75 75 75 275 39 39 39 39
 217 164 217 217 217 217 3 3 3 3 36 36 36 36 23 23 235 235 235 196
 196 196 173 275 275 275 275 275 39 164 164 164 164 217 217 217 3 3 3 409
 36 36 36 36 23 23 23 235 196 196 196 196 255 275 275 275 275 279 279 279
 164 164 164 217 217 253 253 253 409 409 36 36 36 36 23 23 23 196 196 196
 196 196 255 255 318 318 279 279 279 279 340 340 340 340 340 253 253 253 409 409
 25 25 25 25 23 23 23 196 196 196 196 196 255 255 318 318 318 279 279 279
 340 340 340 340 409 409 253 253 409 409 25 25 25 25 23 23 23 196 196 196
 404 396 255 255 318 318 279 279 279 42 340 340 340 340 409 409 409 409 409 409
 25 25 25 25 25 23 404 404 404 404 404 396 396 255 238 211 238 279 42 42
 42 340 340 360 360 409 409 409 409 141 141 25 25 25 171 404 404 404 404 404
 404 396 396 238 238 238 238 238 42 42 42 406 360 360 360 409 170 170 170 141
 141 383 383 171 171 171 171 404 404 404 404 404 238 238 238 238 238 238 238 42
 406 406 406 360 338 338 170 170 170 383 383 383 383 171 171 171 171 404 404 404
 404 404 238 238 238 238 238 238 166 166 166 406 406 338 338 338 338 170 170 383
 383 383 383 383 171 171 171 54 404 404 404 106 106 106 238 238 238 166 166 166
 166 185 185 338 338 338 338 338 298 383 383 383 383 383 171 171 54 54 54 404
 106 106 106 106 106 261 261 166 166 166 185 185 185 338 338 338 338 338 96 96
 383 383 383 383 395 395 395 54 54 404 106 106 106 106 106 261 261 261 133 133
 185 185 185 185 338 338 338 338 96 96 96 383 383 395 395 395 395 395 54 387
 106 106 106 106 261 261 261 261 133 133 185 185 185 351 351 338 338 338 96 96
 96 383 385 385 385 395 395 203 203 203 106 106 106 261 261 261 261 261 261 185
 185 185 185 351 351 351 160 160 96 96 96 385 385 385 385 385 385 203 203 6
 6 106 261 261 261 261 261 261 261 59 59 59 229 229 229 229 188 160 156 156
 156 378 378 385 385 385 385 203 6 6 6 146 261 261 261 261 261 261 261 59
 59 59 229 229 229 229 188 156 156 156 156 378 378 385 385 385 385 203 6 6
 6 146 146 261 261 261 261 256 256 59 59 59 59 229 229 375 375 375 156 156
 156 378 378 378 388 388 388 388 6 6 40 146 146 146 261 201 256 256 256 59
 59 59 59 311 375 375 375 375 61 61 61 378 378 388 388 388 388 388 6 40
 40 40 40 201 201 201 201 245 245 245 59 59 59 179 179 375 375 375 61 61
 61 61 293 293 293 293 293 293 40 40 40 40 40 201 201 201 201 245 245 245
 245 179 179 179 179 179 179 61 61 61 61 61 8 8 8 293 293 293 40 40
 285 285 157 157 303 303 303 245 245 245 245 179 179 179 179 179 179 179 61 61
 61 8 8 8 8 8 332 285 285 285 285 285 157 157 303 303 303 183 183 183
 179 179 179 179 179 179 179 379 379 61 61 8 8 8 8 332 332 285 285 285
 285 157 157 157 334 334 334 183 183 183 183 179 179 179 179 179 179 379 379 379
 223 8 8 8 332 332 332 332 10 10 10 157 157 157 334 334 334 183 183 183
 183 183 179 179 28 28 379 379 379 379 43 43 182 182 332 332 332 332 10 10
 10 157 157 157 334 334 334 183 183 183 183 183 217 28 28 28 379 379 379 379
 43 43 182 182 332 332 332 332 10 10 10 157 157 157 157 334 334 183 183 183
 183 217 217 217 217 217 217 3 3 43 43 43 182 182 182 332 332 288 288 10
 173 75 75 75 75 75 39 39 39 39 217 217 217 217 217 217 3 3 3 3
 43 43 182 182 182 182 332 288 288 173 173 173 75 75 75 75 39 39 39 39
 217 217 217 217 217 217 3 3 3 3 43 43 182 182 182 182 235 235 235 173
 173 173 75 75 75 75 39 39 39 39 217 217 217 217 217 217 3 3 3 3
 43 118 118 182 182 235 235 235 235 173 173 173 173 75 75 75 39 39 39 217
 217 217 217 217 217 217 3 3 3 3 118 118 118 23 23 23 235 235 235 173
 173 173 173 173 275 275 275 275 39 164 164 164 164 217 217 217 3 3 409 409
 36 36 36 23 23 23 23 235 235 196 196 173 173 173 318 318 318 279 279 53
 53 164 164 53 217 409 409 409 409 409 409 36 36 23 23 23 23 23 196 196
 196 68 68 318 318 318 318 279 279 53 53 53 53 53 409 409 409 409 409 409
 409 25 25 152 23 23 23 23 196 196 68 68 68 318 318 318 318 318 279 53
 53 53 53 53 409 409 409 409 409 409 409 25 152 152 152 23 23 23 196 196
 68 68 68 318 318 318 318 279 42 42 42 53 53 53 409 409 409 409 409 409
 409 25 152 152 152 23 23 404 404 404 404 396 396 255 211 211 211 42 42 42
 42 42 340 360 409 409 409 409 409 141 141 1 1 152 171 171 404 404 404 404
 404 396 396 238 238 211 238 42 42 42 42 42 360 360 409 409 409 409 409 141
 1 1 1 1 171 171 171 404 404 404 404 404 238 238 238 238 238 238 42 42
 42 406 406 80 80 80 409 170 298 298 1 1 1 1 171 171 171 404 404 404
 387 387 387 238 238 238 238 238 166 166 166 406 406 80 80 80 80 298 298 298
 383 383 383 383 171 171 171 404 404 404 387 387 387 106 238 238 238 238 166 166
 166 185 185 338 80 80 80 298 298 298 383 383 383 383 395 395 395 395 387 387
 387 387 106 106 106 261 261 261 133 166 185 185 185 338 338 338 338 338 96 96
 96 383 383 395 395 395 395 395 387 387 387 387 106 106 261 261 261 261 133 133
 185 185 185 185 209 209 338 96 96 96 96 96 383 395 395 395 395 395 387 387
 387 106 106 261 261 261 261 261 133 133 185 185 185 185 209 209 338 96 96 96
 96 96 385 385 395 395 395 395 203 387 106 106 261 261 261 261 261 261 261 185
 185 185 229 229 229 229 229 96 96 96 96 96 385 385 385 385 395 395 384 6
 6 261 261 261 261 261 261 261 261 261 59 229 229 229 229 229 229 156 156 156
 156 378 378 385 385 385 385 384 384 6 6 261 261 261 261 261 261 261 261 59
 59 59 229 229 229 229 229 156 156 156 156 378 378 378 385 385 385 384 384 6
 6 192 192 261 261 261 261 261 261 59 59 59 229 229 229 229 375 156 156 156
 156 378 378 378 293 293 293 384 384 6 40 146 192 261 261 261 256 256 256 59
 59 59 59 229 229 375 375 375 156 156 156 378 378 293 293 293 293 293 384 40
 40 40 27 303 303 201 245 245 245 245 245 245 179 179 179 179 375 375 61 61
 61 293 293 293 293 293 293 293 293 40 285 285 285 303 303 303 303 245 245 245
 245 245 179 179 179 179 179 61 61 61 61 342 342 342 293 293 293 293 285 285
 285 285 285 303 303 303 303 245 245 245 245 179 179 179 179 179 179 179 223 223
 223 342 342 342 342 332 332 285 285 285 285 285 14 303 303 303 303 303 183 245
 245 179 179 179 179 179 179 26 223 223 223 342 342 342 342 332 332 285 285 285
 285 285 14 14 303 303 303 183 183 183 183 179 179 179 179 179 26 26 26 223
 223 342 342 342 332 332 332 332 285 285 10 14 14 14 14 334 334 183 183 183
 183 183 179 179 179 179 26 26 26 26 223 182 182 182 332 332 332 332 285 10
 10 14 14 14 14 334 334 183 183 183 183 183 227 217 217 217 26 26 26 26
 43 182 182 182 332 332 332 332 10 10 10 173 14 14 14 55 55 55 183 183
 183 217 217 217 217 217 217 26 3 182 182 182 182 182 182 332 332 332 332 10
 173 173 75 75 55 55 55 55 39 183 217 217 217 217 217 217 217 3 3 3
 43 182 182 182 182 182 332 332 332 173 173 173 75 75 55 55 55 55 39 217
 217 217 217 217 217 217 217 3 3 3 182 182 182 182 182 182 332 235 173 173
 173 173 173 75 75 55 55 55 39 217 217 217 217 217 217 217 217 3 3 234
 118 118 118 118 182 182 235 235 173 173 173 173 173 173 75 401 401 401 39 46
 217 217 217 217 217 217 217 3 3 234 118 118 118 118 23 23 235 235 235 173
 173 173 173 173 259 348 348 348 53 53 53 53 217 217 217 217 409 409 409 409