# vtk DataFile Version 2.0
Data set from IO Version 6.4.197.9a0dee2
ASCII

DATASET RECTILINEAR_GRID
DIMENSIONS 31 31 31
X_COORDINATES 31 float
-5.850000 5.850000 17.549999 29.249998 40.950001 52.650002 64.349998 76.050003 87.750000 99.449997 111.150002 122.849998 134.549988 146.249985 157.949997 169.649994 181.349991 193.049988 204.749985 216.449997 228.149994 
239.849991 251.549988 263.250000 274.949982 286.649994 298.349976 310.049988 321.750000 333.449982 345.149994 
Y_COORDINATES 31 float
-5.850000 5.850000 17.549999 29.249998 40.950001 52.650002 64.349998 76.050003 87.750000 99.449997 111.150002 122.849998 134.549988 146.249985 157.949997 169.649994 181.349991 193.049988 204.749985 216.449997 228.149994 
239.849991 251.549988 263.250000 274.949982 286.649994 298.349976 310.049988 321.750000 333.449982 345.149994 
Z_COORDINATES 31 float
-5.850000 5.850000 17.549999 29.249998 40.950001 52.650002 64.349998 76.050003 87.750000 99.449997 111.150002 122.849998 134.549988 146.249985 157.949997 169.649994 181.349991 193.049988 204.749985 216.449997 228.149994 
239.849991 251.549988 263.250000 274.949982 286.649994 298.349976 310.049988 321.750000 333.449982 345.149994 
CELL_DATA 27000
SCALARS FeatureIds int 1
LOOKUP_TABLE default
 36 36 36 101 101 101 101 101 101 101 185 185 118 118 291 291 291 291 346 346
 346 346 231 231 231 31 31 31 31 31 36 36 36 36 101 101 101 101 101 101
 118 185 118 118 291 291 291 291 348 348 348 346 231 231 231 31 31 31 31 31
 36 36 36 36 124 101 101 101 101 118 118 118 118 118 291 291 291 348 348 348
 348 348 231 231 4 4 4 4 4 4 36 36 36 36 124 124 124 124 21 21
 21 118 136 136 136 136 357 357 357 348 348 348 381 4 4 4 4 4 4 4
 247 247 247 247 124 124 124 124 21 21 21 136 136 136 136 136 357 357 357 357
 357 357 381 4 4 4 4 4 4 4 247 247 247 50 124 124 124 124 21 21
 21 136 136 136 136 136 357 357 357 357 357 357 381 4 4 4 4 4 4 4
 247 247 50 50 124 124 124 124 21 21 21 136 136 136 136 136 357 357 357 357
 357 256 83 83 83 83 4 4 4 4 247 50 50 50 50 124 124 25 25 25
 25 25 136 136 136 136 357 357 357 256 256 256 83 83 83 83 83 83 83 4
 247 50 302 302 302 302 124 25 25 25 25 25 76 75 75 75 256 256 256 256
 256 256 83 83 83 83 83 83 83 83 302 302 302 302 302 302 25 25 25 25
 25 25 76 75 75 75 256 256 256 256 256 256 83 83 83 83 83 83 83 83
 61 302 302 302 302 302 25 25 25 25 25 76 76 75 75 196 196 256 256 256
 256 256 83 83 83 83 83 83 83 83 61 61 302 302 302 364 25 25 25 25
 25 217 76 76 174 174 174 256 256 256 256 256 83 83 83 83 83 83 83 61
 61 61 61 61 61 364 25 25 25 25 217 217 217 217 174 174 174 174 334 334
 334 334 83 83 83 83 83 83 61 61 61 61 61 61 61 14 14 14 14 217
 217 217 217 217 174 174 174 174 334 334 334 334 5 5 83 83 83 176 61 61
 61 61 61 61 61 14 14 14 14 14 217 217 217 217 174 174 174 174 334 334
 334 334 334 5 83 176 176 176 254 61 61 61 61 61 61 14 14 14 14 14
 217 217 217 132 132 132 132 132 334 334 334 112 112 112 176 176 176 176 254 254
 254 61 61 127 127 14 14 14 14 14 14 217 106 106 132 132 85 85 85 85
 112 112 112 112 112 176 176 176 254 254 254 51 127 127 127 127 127 127 16 16
 16 16 106 19 19 19 85 85 85 112 112 112 112 112 81 81 81 176 254 254
 51 51 51 127 127 127 127 127 16 16 16 16 19 19 19 19 19 85 85 85
 292 292 292 292 81 81 81 81 51 51 51 51 51 127 127 127 127 127 16 16
 16 16 19 19 19 19 19 19 19 19 292 292 292 292 81 81 81 81 51 51
 51 51 51 51 127 127 127 127 16 16 16 16 19 19 19 19 19 19 389 389
 292 292 292 292 81 81 81 51 51 51 51 51 51 51 51 127 127 344 344 16
 16 95 19 19 19 19 273 273 273 389 389 389 292 388 81 81 81 51 51 51
 51 51 51 51 51 127 344 344 344 344 95 95 95 19 19 273 273 273 273 389
 389 389 388 388 388 251 251 251 51 51 51 51 51 51 51 138 344 344 344 344
 95 95 95 211 211 211 273 273 273 109 109 231 388 388 388 251 251 251 251 51
 51 51 51 51 138 138 138 344 344 344 95 84 84 211 211 211 211 211 109 109
 109 231 231 231 231 251 251 251 251 251 251 94 94 94 138 138 138 138 138 138
 84 84 84 211 211 211 211 211 109 109 109 231 231 231 231 251 251 251 251 251
 94 94 94 94 138 138 138 138 138 138 84 84 84 211 211 211 211 211 109 109
 109 231 231 231 231 231 251 251 251 251 94 94 94 94 138 138 138 138 110 110
 84 84 84 211 211 211 211 211 346 346 231 231 231 231 231 231 251 251 251 251
 94 94 94 94 94 110 110 110 110 110 185 185 185 291 291 291 291 291 346 346
 346 231 231 231 231 231 31 31 31 31 94 94 94 94 94 101 101 101 101 101
 185 185 185 291 291 291 291 291 346 346 346 231 231 231 231 31 31 31 31 31
 36 36 36 36 101 101 101 101 101 101 185 185 118 291 291 291 291 291 346 346
 346 346 231 231 231 231 31 31 31 31 36 36 36 36 101 101 101 101 101 101
 118 118 118 118 291 291 291 291 346 346 346 346 231 231 231 231 31 31 227 227
 36 36 36 36 36 124 101 101 101 101 118 118 118 118 291 291 357 357 357 348
 348 348 231 231 231 4 4 4 227 227 36 36 36 36 124 124 124 124 21 21
 21 118 136 136 136 357 357 357 357 357 357 357 381 381 4 4 4 4 4 227
 247 247 247 124 124 124 124 124 21 21 21 136 136 136 136 357 357 357 357 357
 357 357 381 381 4 4 4 4 4 4 247 247 247 124 124 124 124 124 21 21
 21 136 136 136 136 357 357 357 357 357 357 357 381 381 4 4 4 4 4 247
 247 247 247 124 124 130 130 124 21 21 21 136 136 136 136 357 357 357 357 357
 357 357 381 83 83 83 4 4 4 247 247 247 50 302 124 124 124 281 281 25
 25 25 136 136 136 357 357 357 357 357 357 256 83 83 83 83 83 83 4 247
 247 302 302 302 302 302 281 281 25 25 25 25 75 75 75 357 357 357 357 256
 256 256 83 83 83 83 83 83 83 83 302 302 302 302 302 302 302 25 25 25
 25 25 75 75 75 75 256 256 256 256 256 256 83 83 83 83 83 83 83 83
 302 302 302 302 302 364 364 25 25 25 25 25 75 75 75 196 196 256 256 256
 256 256 83 83 83 83 83 83 83 83 61 61 61 302 364 364 364 25 25 25
 25 217 76 331 331 331 331 256 256 256 256 83 83 83 83 83 83 83 83 61
 61 61 61 61 364 364 364 25 25 25 217 217 217 331 331 331 331 331 334 334
 334 334 5 5 83 83 83 83 61 61 61 61 61 61 61 236 236 236 236 217
 217 217 217 331 331 331 174 174 334 334 334 334 5 5 5 83 176 176 61 61
 61 61 61 61 61 236 236 236 236 236 217 217 217 331 331 331 174 183 334 334
 334 112 5 5 5 176 176 176 176 61 61 61 61 61 325 236 236 236 236 236
 236 217 106 331 331 331 132 85 85 334 112 112 112 112 5 176 176 176 176 254
 254 61 61 127 127 148 236 236 236 236 16 106 106 106 106 85 85 85 85 112
 112 112 112 112 112 176 176 176 176 254 51 51 51 127 127 148 236 236 236 16
 16 106 106 106 106 85 85 85 85 112 112 112 112 112 112 303 303 303 303 254
 51 51 51 127 127 127 127 127 16 16 16 106 106 106 19 19 85 85 85 112
 112 112 112 112 81 81 81 303 303 51 51 51 51 51 127 127 127 127 16 16
 16 16 106 19 19 19 19 19 19 389 292 292 292 292 81 81 81 303 51 51
 51 51 51 51 127 127 127 127 16 16 16 16 19 19 19 19 273 273 389 389
 389 292 292 81 81 81 81 303 51 51 51 51 51 51 51 127 127 127 16 16
 95 95 95 19 19 273 273 273 389 389 389 389 388 388 388 81 81 51 51 51
 51 51 51 51 51 127 344 344 344 344 95 95 95 95 19 273 273 273 273 389
 389 388 388 388 388 251 251 251 51 51 51 51 51 51 138 138 138 344 344 344
 95 95 95 95 211 273 273 273 273 109 389 388 388 388 388 251 251 251 251 251
 251 51 51 138 138 138 138 138 138 95 95 95 84 84 211 211 211 273 109 109
 109 231 388 388 388 251 251 251 251 251 94 94 94 138 138 138 138 138 138 138
 95 84 84 84 211 211 211 211 109 109 109 231 231 231 231 251 251 251 251 251
 94 94 94 138 138 138 138 138 138 138 84 84 84 84 211 211 211 211 109 109
 231 231 231 231 231 231 251 251 251 251 94 94 94 94 138 138 138 138 138 197
 84 84 84 84 291 291 291 291 346 346 231 231 231 231 231 231 251 251 251 251
 94 94 94 94 138 138 110 110 110 197 185 84 84 291 291 291 291 291 346 346
 346 231 231 231 231 231 231 31 31 94 94 94 94 94 138 101 101 101 101 101
 185 185 291 291 291 291 291 291 346 295 346 231 231 231 231 231 31 31 31 31
 227 36 36 36 101 101 101 101 101 101 359 359 359 359 291 291 291 291 346 346
 346 346 231 231 231 231 31 31 227 227 227 36 36 36 34 34 101 101 101 101
 118 118 359 359 291 291 291 346 346 346 346 346 231 231 231 231 227 227 227 227
 227 36 36 36 124 124 124 101 34 34 118 118 118 359 291 357 357 357 357 357
 346 346 231 231 200 200 227 227 227 227 227 36 36 36 124 124 124 124 34 21
 21 245 245 245 357 357 357 357 357 357 357 357 381 381 381 227 227 227 227 227
 227 247 247 124 124 124 124 124 21 21 21 245 136 136 357 357 357 357 357 357
 357 357 381 381 381 4 4 227 227 227 247 247 247 124 124 124 124 124 21 21
 21 136 136 136 357 357 357 357 357 357 357 357 381 381 381 4 4 4 227 227
 247 247 247 124 124 124 124 281 281 281 21 307 136 136 357 357 357 357 357 357
 357 357 381 381 381 83 4 4 4 247 247 247 247 302 302 124 281 281 281 281
 307 307 307 307 357 357 357 357 357 357 357 357 381 83 83 83 83 83 46 247
 247 247 302 302 302 302 281 281 281 281 307 307 307 75 75 357 357 357 357 357
 357 256 83 83 83 83 83 83 83 247 302 302 302 302 302 364 281 281 281 25
 307 307 307 75 75 75 357 357 256 256 256 256 83 83 83 83 83 83 83 83
 61 302 302 302 364 364 364 25 25 25 307 307 307 75 75 75 331 183 256 256
 256 40 40 83 83 83 83 83 83 61 61 61 61 302 364 364 364 364 25 25
 25 307 331 331 331 331 331 183 183 183 183 5 5 83 83 83 83 83 83 61
 61 61 61 61 364 364 364 364 236 193 193 217 331 331 331 331 331 183 183 183
 183 5 5 5 5 5 74 83 61 61 61 61 61 61 364 364 236 236 236 236
 217 217 331 331 331 331 331 183 183 183 183 5 5 5 5 5 176 176 61 61
 61 61 61 61 325 325 236 236 236 236 236 217 331 331 331 331 331 183 183 183
 80 5 5 5 5 5 176 176 176 61 61 61 61 61 325 325 236 236 236 236
 343 106 106 331 331 331 331 183 183 183 112 112 5 5 5 176 176 176 176 61
 61 61 61 148 148 148 236 236 236 236 343 106 106 106 106 106 85 85 85 85
 112 112 112 112 5 176 176 176 176 11 51 371 371 148 148 148 148 236 236 16
 343 106 106 106 106 106 85 85 85 112 112 112 112 112 81 303 303 303 303 303
 51 51 51 127 148 148 148 236 16 16 16 106 106 106 106 106 85 85 85 85
 112 112 112 112 81 81 303 303 303 303 51 51 51 51 127 127 127 127 16 16
 16 106 106 106 106 106 19 19 85 389 112 292 292 81 81 81 81 303 303 51
 51 51 51 51 127 127 127 127 16 16 16 16 106 19 19 19 273 273 389 389
 389 389 388 81 81 81 81 303 51 51 51 51 51 51 51 127 127 127 16 16
 95 95 95 95 78 78 273 273 389 389 389 388 388 388 388 388 81 251 51 51
 51 51 51 51 51 138 138 344 344 95 95 95 95 95 78 273 273 273 389 389
 389 388 388 388 388 388 251 251 51 51 51 51 51 138 138 138 138 138 138 95
 95 95 95 95 78 273 273 273 273 389 388 388 388 388 388 388 251 251 251 251
 251 51 138 138 138 138 138 138 138 95 95 95 95 95 211 113 113 113 273 109
 109 388 388 388 388 251 251 251 251 251 94 94 138 138 138 138 138 138 138 138
 95 84 84 84 113 113 113 113 113 109 231 231 231 231 231 251 251 251 251 251
 94 94 94 138 138 138 138 138 138 197 84 84 84 84 113 113 113 113 113 109
 231 231 231 231 231 231 251 251 251 251 94 94 94 138 138 138 138 138 197 197
 197 84 359 359 291 291 113 113 346 346 231 231 231 231 231 231 251 251 251 94
 94 94 94 94 138 138 138 138 197 197 197 359 359 359 291 291 291 346 346 346
 346 231 231 231 231 231 231 251 251 94 94 94 94 94 138 101 101 101 101 197
 359 359 359 359 291 291 291 346 346 346 346 231 231 231 231 231 231 31 31 31
 227 227 337 337 34 34 34 34 34 197 359 359 359 359 359 291 291 133 346 346
 346 346 231 231 231 200 200 227 227 227 227 227 227 227 34 34 34 34 34 34
 245 359 359 359 359 291 133 133 133 346 346 162 231 200 200 200 227 227 227 227
 227 227 36 36 34 34 34 34 34 34 245 245 245 245 245 357 357 357 357 357
 162 162 162 200 200 200 227 227 227 227 227 227 36 36 124 34 34 34 34 34
 245 245 245 245 357 357 357 357 357 357 357 241 381 381 381 200 227 227 227 227
 227 227 247 124 124 124 124 124 34 34 245 245 245 245 357 357 357 357 357 357
 357 241 381 381 381 381 227 227 227 227 46 247 247 124 124 124 124 124 281 281
 245 245 245 245 357 357 357 357 357 357 357 241 381 381 381 381 227 227 46 46
 46 247 247 124 124 124 281 281 281 281 281 307 307 357 357 357 357 357 357 357
 357 241 381 381 381 381 46 46 46 46 46 247 247 302 302 124 281 281 281 281
 307 307 307 307 357 357 357 357 357 357 357 241 381 381 381 83 255 46 46 46
 46 247 302 302 302 302 281 281 281 281 307 307 307 307 307 357 357 357 357 161
 161 161 40 40 83 83 83 46 46 46 242 302 302 302 302 364 281 281 281 307
 307 307 307 307 307 307 357 161 161 161 161 161 40 40 74 74 74 74 74 46
 242 302 302 302 364 364 364 364 281 307 307 307 307 307 307 307 183 183 183 161
 161 40 40 40 74 74 74 74 74 74 61 61 61 364 364 364 364 364 364 193
 193 193 307 331 331 331 183 183 183 183 183 40 40 40 74 74 74 74 74 61
 61 61 61 61 364 364 364 364 193 193 193 193 331 331 331 331 331 183 183 183
 80 80 5 5 5 74 74 74 74 61 61 61 61 61 364 364 236 236 236 193
 193 193 331 331 331 331 331 183 183 183 80 80 5 5 5 74 74 74 11 11
 234 234 61 61 325 325 236 236 236 236 193 193 331 331 331 331 331 183 183 183
 80 80 5 5 5 74 176 176 11 11 234 234 234 234 325 325 236 236 236 236
 343 343 106 331 331 331 331 183 183 183 80 80 5 5 5 176 176 176 11 11
 234 234 234 234 148 148 236 236 236 343 343 343 106 106 106 106 85 85 85 183
 112 112 112 323 323 323 303 176 11 11 234 371 371 371 148 148 148 236 236 343
 343 343 106 106 106 106 85 85 85 112 112 112 112 323 323 323 303 303 303 11
 371 371 371 371 148 148 148 236 16 343 343 106 106 106 106 106 290 290 85 85
 112 112 323 323 323 81 303 303 303 303 371 371 371 371 131 131 131 131 16 16
 16 150 106 106 106 78 290 290 290 389 112 350 323 323 81 81 81 303 303 303
 371 371 371 15 15 131 131 131 315 315 315 150 150 78 78 78 78 78 389 389
 389 350 388 388 81 81 81 303 303 51 51 15 15 15 15 15 131 315 315 315
 315 95 95 78 78 78 78 78 389 389 389 350 388 388 388 388 388 251 51 51
 51 15 15 15 15 138 138 315 315 315 95 95 95 78 78 78 78 78 389 389
 388 388 388 388 388 388 388 251 251 270 51 51 138 138 138 138 138 138 138 95
 95 95 95 95 78 78 78 78 128 128 388 388 388 388 388 388 251 251 251 270
 270 138 138 138 138 138 138 138 138 95 95 95 95 95 113 113 113 113 113 128
 388 388 388 388 388 388 251 251 251 251 94 94 138 138 138 138 138 138 138 197
 197 197 84 84 113 113 113 113 113 113 231 231 388 388 388 251 251 251 251 251
 94 94 138 138 138 138 138 138 197 197 197 197 84 84 113 113 113 113 113 113
 231 231 231 231 231 231 251 251 251 251 94 94 94 138 138 138 138 138 197 197
 197 197 359 359 113 113 113 113 346 346 231 231 231 231 231 231 209 209 209 209
 94 94 94 138 138 138 138 197 197 197 197 359 359 359 359 291 291 346 346 346
 346 231 231 231 231 231 231 209 209 209 94 94 94 138 138 138 138 197 197 197
 197 359 359 359 359 291 291 346 346 346 346 231 231 231 231 231 231 209 209 209
 337 337 337 337 34 34 34 34 34 197 197 359 359 359 359 133 133 133 133 133
 162 162 162 200 200 200 200 227 227 227 227 337 337 337 34 34 34 34 34 34
 245 245 245 245 245 133 133 133 133 133 162 162 162 200 200 200 200 227 227 227
 227 227 337 337 34 34 34 34 34 34 245 245 245 245 245 133 133 133 133 133
 162 162 162 200 200 200 200 227 227 227 227 227 36 182 182 34 34 34 34 245
 245 245 245 245 245 357 357 357 357 357 241 241 241 381 200 200 227 227 227 227
 227 153 153 182 182 182 182 34 34 245 245 245 245 245 357 357 357 357 357 357
 241 241 241 381 381 200 227 227 227 227 46 153 153 182 182 182 182 182 182 245
 245 245 245 245 357 357 357 357 357 357 241 241 372 372 381 381 227 46 46 46
 46 46 247 182 182 182 182 281 281 281 245 245 245 245 357 357 357 357 357 357
 241 241 372 372 255 255 255 46 46 46 46 46 46 182 182 182 281 281 281 281
 307 307 307 307 357 357 357 357 357 357 241 241 241 372 255 255 255 46 46 46
 46 46 302 302 35 35 281 281 281 281 307 307 307 307 307 357 357 357 161 161
 161 161 40 255 255 255 255 46 46 46 242 242 302 302 35 35 35 281 281 307
 307 307 307 307 307 310 357 161 161 161 161 161 40 40 74 74 74 74 74 46
 242 242 242 302 364 364 364 364 281 307 307 307 307 307 307 310 310 183 161 161
 161 40 40 40 74 74 74 74 74 41 242 242 242 364 364 364 364 364 364 193
 193 193 307 307 310 310 183 183 183 183 183 40 40 40 74 74 74 74 74 41
 242 242 242 242 364 364 364 364 193 193 193 193 193 331 331 331 183 183 183 183
 80 226 40 5 74 74 74 74 74 11 234 234 234 234 364 364 236 236 236 193
 193 193 193 331 331 331 183 183 183 80 80 226 226 5 5 74 74 74 11 11
 234 234 234 234 282 282 236 236 236 236 193 193 331 331 331 331 183 183 183 183
 80 226 226 5 5 74 74 11 11 11 234 234 234 234 282 282 236 236 236 343
 343 343 106 331 331 331 177 177 177 183 80 226 323 323 323 323 176 11 11 11
 234 234 234 234 282 148 236 236 236 343 343 343 106 106 106 106 177 177 177 177
 177 323 323 323 323 323 111 111 11 11 234 371 371 371 148 148 148 236 343 343
 343 343 106 106 106 106 290 290 290 290 323 323 323 323 323 323 111 111 111 11
 371 371 371 371 131 131 131 131 343 343 343 343 106 106 106 290 290 290 290 290
 323 323 323 323 323 323 323 111 111 11 371 371 371 371 131 131 131 131 315 315
 150 150 150 150 78 78 290 290 290 290 350 350 323 323 323 323 323 303 111 11
 371 371 371 15 15 131 131 131 315 315 315 150 150 150 78 78 78 290 290 290
 350 350 350 350 323 323 323 303 270 270 371 15 15 15 15 15 131 315 315 315
 315 150 150 78 78 78 78 78 78 128 350 350 350 350 388 388 388 270 270 270
 270 15 15 15 15 203 203 315 315 315 315 95 95 78 78 78 78 78 128 128
 128 350 350 388 388 388 388 270 270 270 270 15 15 15 203 203 203 138 315 315
 95 95 95 78 78 78 78 78 128 128 128 388 388 388 388 388 332 251 270 270
 270 270 138 138 138 138 138 138 138 197 95 95 95 95 113 113 113 113 128 128
 128 388 388 388 388 388 332 251 270 270 270 188 138 138 138 138 138 138 197 197
 197 197 95 113 113 113 113 113 113 128 306 158 158 158 158 158 251 209 251 251
 188 188 188 138 138 138 138 138 197 197 197 197 197 113 113 113 113 113 113 306
 306 158 158 158 158 158 209 209 209 209 188 188 188 138 138 138 138 197 197 197
 197 197 359 359 113 113 113 113 113 306 306 231 158 158 158 209 209 209 209 209
 188 188 188 138 138 138 197 197 197 197 197 197 359 359 359 13 13 13 346 306
 306 231 231 231 231 231 209 209 209 209 188 188 188 138 138 138 197 197 197 197
 197 359 359 359 359 13 13 133 133 346 346 231 231 231 231 200 209 209 209 209
 337 337 337 337 34 34 34 34 34 197 245 245 245 245 13 13 133 133 133 133
 162 162 162 200 200 200 200 200 227 227 337 337 337 337 34 34 34 34 34 34
 245 245 245 245 245 133 133 133 133 133 162 162 162 200 200 200 200 200 227 227
 227 337 337 337 34 34 34 34 34 245 245 245 245 245 245 133 133 133 133 133
 162 162 162 200 200 200 200 227 227 227 227 227 337 182 182 182 34 34 34 245
 245 245 245 245 245 373 357 357 357 357 241 241 241 200 200 200 200 227 227 227
 46 153 153 182 182 182 182 34 34 245 245 245 245 245 245 357 357 357 357 357
 241 241 241 239 239 338 338 46 46 46 46 153 153 182 182 182 182 182 182 245
 245 245 245 245 245 357 357 357 357 357 241 241 241 239 239 338 338 46 46 46
 46 46 153 182 182 182 182 182 281 245 245 245 245 245 245 357 357 357 357 357
 241 241 241 239 255 255 255 46 46 46 46 46 46 182 182 182 182 281 281 281
 47 307 307 307 252 252 357 357 357 161 161 241 241 239 255 255 255 46 46 46
 41 41 41 35 35 35 35 281 281 307 307 307 307 307 307 252 357 161 161 161
 161 161 241 255 255 255 255 41 41 41 41 41 41 35 35 35 35 281 281 307
 307 307 307 307 307 310 310 161 161 161 161 161 40 40 74 74 74 74 41 41
 242 242 242 242 163 163 163 163 281 307 307 307 307 307 310 310 310 183 161 161
 161 40 40 40 74 74 74 74 41 41 242 242 242 242 163 163 163 364 193 193
 193 193 307 307 310 310 310 183 183 183 161 40 40 40 74 74 74 74 41 41
 242 242 242 242 163 163 163 163 193 193 193 193 193 331 310 310 183 183 183 183
 226 226 226 40 74 74 74 74 74 41 234 234 234 234 163 163 163 236 236 193
 193 193 193 331 331 331 183 183 183 183 226 226 226 74 74 74 74 74 11 11
 234 234 234 234 282 282 282 236 236 236 193 193 99 331 331 331 177 183 183 183
 226 226 226 323 323 74 74 145 11 11 234 234 234 234 282 282 282 236 236 343
 343 343 106 331 331 177 177 177 177 183 226 226 323 323 323 323 145 145 11 11
 234 234 234 234 282 282 282 236 64 343 343 343 106 106 106 106 177 177 177 177
 177 323 323 323 323 323 111 111 11 11 234 371 371 371 131 131 131 236 64 343
 343 343 106 106 106 106 290 290 290 177 323 323 323 323 323 323 111 111 111 11
 371 371 371 371 131 131 131 131 64 64 343 150 150 150 150 290 290 290 290 290
 323 323 323 323 323 323 323 111 111 11 371 371 371 371 131 131 131 131 315 315
 150 150 150 150 78 290 290 290 290 290 350 350 323 323 323 323 323 111 111 11
 371 371 15 15 15 131 131 131 315 315 315 150 150 150 78 78 78 290 290 290
 350 350 350 350 323 323 323 323 270 270 371 15 15 15 15 131 131 315 315 315
 315 150 150 78 78 78 78 78 78 128 350 350 350 350 350 323 323 270 270 270
 270 15 15 15 15 203 203 203 315 315 315 150 150 78 78 78 78 78 128 128
 128 350 350 350 350 388 388 270 270 270 270 270 15 15 203 203 203 203 315 315
 315 95 95 78 78 78 78 78 128 128 128 350 350 350 388 332 332 332 270 270
 270 270 138 138 203 203 203 138 197 197 197 197 95 78 113 113 113 113 128 128
 128 158 158 158 158 332 332 332 270 270 188 188 138 138 138 138 138 138 197 197
 197 197 197 113 113 113 113 113 113 128 306 158 158 158 158 158 332 209 209 270
 188 188 188 138 138 138 138 197 197 197 197 197 197 197 113 113 113 113 113 306
 306 158 158 158 158 158 209 209 209 209 188 188 188 188 138 138 138 197 197 197
 197 197 197 359 13 13 13 13 306 306 306 306 158 158 158 209 209 209 209 209
 188 188 188 188 138 138 197 197 197 197 197 197 197 359 13 13 13 13 13 306
 306 306 158 158 158 209 209 209 209 209 188 188 188 188 135 135 197 197 197 197
 197 197 359 359 13 13 13 13 133 306 306 306 231 231 200 200 209 209 209 209
 337 337 337 337 34 34 34 34 34 197 245 245 245 245 13 13 13 133 133 133
 162 162 162 200 200 200 200 200 288 288 337 337 337 337 34 34 34 34 34 245
 245 245 245 245 245 133 133 133 133 133 162 162 162 200 200 200 200 200 288 288
 288 337 337 337 170 170 34 34 34 245 245 245 245 245 245 373 133 133 133 133
 162 162 162 200 200 200 200 200 288 288 288 46 337 182 182 170 170 34 34 245
 245 245 245 245 373 373 373 357 357 137 241 241 241 338 200 200 200 46 288 288
 46 153 153 182 182 182 182 34 34 245 245 245 245 245 245 373 373 357 137 137
 241 241 241 338 338 338 338 46 46 46 46 153 153 182 182 182 182 182 182 245
 245 245 245 245 245 373 357 357 137 137 241 241 241 239 338 338 338 46 46 46
 46 46 153 182 182 182 182 182 47 47 47 47 245 245 252 252 252 357 137 137
 241 241 241 239 338 338 338 46 46 46 46 46 46 182 182 182 182 281 281 47
 47 47 47 252 252 252 252 252 161 161 161 241 241 335 255 255 255 46 46 46
 41 41 41 35 35 35 35 281 281 47 47 47 307 307 252 252 252 354 161 161
 161 161 335 335 335 255 255 41 41 41 41 41 41 35 35 35 35 35 181 47
 47 307 307 307 307 354 354 354 161 161 161 161 40 335 74 74 74 41 41 41
 41 242 242 242 163 163 163 163 181 307 307 307 307 307 310 310 354 354 161 161
 161 161 40 40 74 74 74 74 41 41 242 242 242 242 163 163 163 163 193 193
 193 99 307 307 310 310 310 183 183 183 161 40 40 40 74 74 74 74 41 41
 242 242 242 242 163 163 163 163 99 99 99 99 99 99 310 310 183 183 183 183
 226 226 226 74 74 74 74 74 41 41 234 234 234 234 163 163 163 236 99 99
 99 99 99 99 331 183 183 183 183 183 226 226 226 74 74 74 74 145 145 11
 234 234 234 234 282 282 282 236 236 99 99 99 99 99 331 183 183 183 183 183
 226 226 226 323 323 323 145 145 145 11 234 234 234 234 282 282 282 64 64 64
 64 99 99 99 331 177 177 177 177 183 226 323 323 323 323 323 145 145 145 11
 234 234 234 234 282 282 282 64 64 64 64 64 106 106 106 177 177 177 177 177
 323 323 323 323 323 323 323 145 145 11 234 234 371 371 131 131 131 64 64 64
 64 64 150 150 106 290 290 290 290 177 323 323 323 323 323 323 323 111 111 11
 371 371 371 371 131 131 131 131 64 64 64 150 150 150 150 290 290 290 290 221
 221 323 323 323 323 323 323 111 111 11 371 371 371 371 131 131 131 131 315 315
 150 150 150 150 150 290 290 290 290 221 221 221 323 323 323 323 323 111 111 86
 371 371 15 15 15 131 131 131 315 315 150 150 150 150 78 78 78 290 290 221
 221 350 350 350 323 323 323 323 323 270 15 15 15 15 15 131 131 315 315 315
 315 150 150 150 78 78 78 78 78 128 350 350 350 350 350 323 323 323 270 270
 270 15 15 15 15 203 203 203 315 315 315 150 150 96 78 78 78 78 128 128
 128 350 350 350 350 388 332 270 270 270 270 270 15 15 203 203 203 203 28 28
 28 28 96 96 96 78 78 78 128 128 128 350 158 158 158 332 332 332 270 270
 270 270 138 138 203 203 203 28 28 28 28 28 96 96 96 96 113 113 128 128
 128 158 158 158 158 332 332 332 270 270 188 188 138 138 138 138 138 138 197 197
 197 197 387 96 113 113 113 113 113 306 306 158 158 158 158 332 332 332 270 270
 188 188 188 138 138 138 138 197 197 197 197 197 387 387 113 113 113 113 306 306
 306 306 158 158 158 158 209 209 209 209 188 188 188 188 138 135 135 197 197 197
 197 197 387 387 13 13 13 13 306 306 306 306 158 158 158 209 209 209 209 209
 188 188 188 188 135 135 135 135 197 197 197 197 387 387 13 13 13 13 13 306
 306 306 158 158 158 209 209 209 209 209 188 188 188 188 135 135 135 135 197 197
 197 197 387 13 13 13 13 13 133 306 306 306 306 231 200 200 209 209 209 209
 337 337 337 39 135 135 135 135 184 184 245 245 245 245 13 13 13 13 133 133
 275 275 275 275 200 200 200 200 288 288 288 288 337 337 170 170 170 34 184 184
 245 245 245 245 245 373 133 133 133 133 275 275 275 200 200 200 200 200 288 288
 288 288 337 170 170 170 170 170 184 245 245 245 245 245 373 373 373 133 133 133
 275 275 275 275 200 200 200 288 288 288 288 288 288 170 170 170 170 170 34 245
 245 245 245 245 373 373 373 373 137 137 137 241 275 338 338 338 338 288 288 288
 288 46 153 170 170 170 170 170 170 245 245 245 245 245 373 373 373 373 137 137
 137 241 241 338 338 338 338 46 288 288 46 46 153 182 182 182 170 170 245 245
 245 245 245 245 245 373 373 137 137 137 137 241 241 338 338 338 338 338 46 46
 46 46 153 182 182 182 182 182 47 47 47 47 47 245 252 252 252 252 137 137
 137 241 241 338 338 338 338 338 46 46 41 41 41 117 117 117 117 117 47 47
 47 47 47 252 252 252 252 252 137 137 137 241 335 335 335 335 335 41 41 41
 41 41 41 117 117 117 117 181 181 47 47 47 47 252 252 252 252 354 354 161
 161 161 335 335 335 335 335 41 41 41 41 41 41 35 35 35 35 181 181 47
 47 47 47 354 354 354 354 354 354 161 161 161 335 335 335 335 335 41 41 41
 41 41 242 242 163 163 163 181 181 181 47 47 307 307 354 354 354 354 354 354
 161 161 335 335 335 335 335 41 41 41 41 41 293 293 49 49 49 181 181 99
 99 99 99 99 354 354 354 354 354 354 161 40 40 335 74 74 74 74 41 41
 293 293 293 293 49 49 49 49 99 99 99 99 99 99 310 310 183 183 183 183
 226 226 226 74 74 74 74 74 41 41 293 293 293 293 49 49 49 49 49 99
 99 99 99 99 317 183 183 183 183 183 226 226 226 74 74 74 145 145 145 145
 234 234 293 293 49 49 49 49 99 99 99 99 99 99 317 317 317 183 183 183
 226 105 323 323 323 145 145 145 145 145 234 234 234 234 282 282 282 64 64 64
 99 99 99 99 317 317 317 317 177 183 105 105 323 323 323 323 145 145 145 145
 234 234 234 234 282 282 282 64 64 64 64 64 99 317 317 317 317 317 177 177
 323 323 323 323 323 323 145 145 145 145 234 234 371 371 131 131 131 64 64 64
 64 64 150 150 317 317 290 290 221 221 221 323 323 323 323 323 323 145 145 145
 371 371 371 371 131 131 131 64 64 64 64 150 150 150 235 290 290 290 221 221
 221 221 323 323 323 323 323 323 145 86 371 371 371 371 131 131 131 131 64 64
 150 150 150 150 150 78 290 290 221 221 221 221 323 323 323 323 323 323 86 86
 86 371 15 15 131 131 131 131 315 315 150 150 150 150 78 78 78 290 221 221
 221 221 350 323 323 323 323 323 86 86 15 15 15 15 15 131 131 315 315 315
 150 150 150 150 78 78 78 78 221 221 221 221 350 350 350 323 323 393 270 270
 270 15 15 15 15 203 203 28 28 28 28 150 150 96 96 78 78 78 221 221
 221 221 350 350 350 350 332 393 270 270 270 270 15 15 203 203 203 28 28 28
 28 28 96 96 96 96 78 78 128 128 128 114 114 114 114 332 332 332 270 270
 270 270 138 138 203 203 28 28 28 28 28 28 96 96 96 96 96 37 128 128
 114 114 114 114 114 332 332 332 270 270 188 188 138 138 138 138 138 28 28 28
 28 387 387 387 96 96 113 37 37 306 306 114 114 114 114 114 332 332 209 270
 188 188 188 138 138 135 135 135 197 197 387 387 387 387 387 13 13 13 37 306
 306 114 114 114 114 114 209 209 209 209 188 188 188 265 135 135 135 135 197 197
 197 387 387 387 13 13 13 13 37 306 306 306 114 114 114 114 209 209 209 209
 188 188 188 39 135 135 135 135 197 197 387 387 387 387 13 13 13 13 13 306
 306 306 26 114 114 209 209 209 209 209 188 188 39 39 135 135 135 135 135 197
 387 387 387 387 13 13 13 13 13 26 26 26 26 26 200 200 209 209 209 209
 337 39 39 39 39 135 135 135 184 184 184 387 387 245 13 13 13 13 133 26
 26 26 26 356 207 207 207 79 79 79 288 288 39 39 170 170 170 184 184 184
 184 245 245 245 245 373 373 133 133 356 356 275 356 356 207 207 207 207 288 288
 288 288 337 170 170 170 170 170 184 184 245 245 245 245 373 373 373 373 133 356
 356 356 356 356 207 207 207 288 288 288 288 288 288 170 170 170 170 170 184 245
 245 245 245 245 373 373 373 373 373 137 356 356 356 338 338 338 338 288 288 288
 288 46 153 170 170 170 170 170 170 245 245 245 245 245 373 373 373 373 137 137
 137 241 338 338 338 338 338 338 288 288 276 276 276 182 182 170 170 170 170 245
 245 245 245 245 245 373 373 137 137 137 137 241 241 338 338 338 338 338 276 276
 276 276 117 117 117 117 117 117 47 47 47 47 47 245 252 252 252 252 137 137
 137 241 335 335 338 338 338 338 276 276 41 41 117 117 117 117 117 117 47 47
 47 47 47 252 252 252 252 354 354 137 137 241 335 335 335 335 335 335 41 41
 41 41 41 117 117 117 117 181 181 47 47 47 47 252 252 252 354 354 354 354
 354 335 335 335 335 335 335 335 41 41 41 41 41 117 117 117 117 181 181 181
 47 47 47 354 354 354 354 354 354 354 161 335 335 335 335 335 335 335 41 41
 41 41 41 293 49 117 181 181 181 181 47 47 47 354 354 354 354 354 354 354
 354 335 335 335 335 335 335 335 41 41 41 293 293 293 49 49 49 49 181 181
 99 99 99 354 354 354 354 354 354 354 301 335 335 335 335 335 335 335 41 41
 293 293 293 293 49 49 49 49 249 249 99 99 99 99 329 329 354 354 354 183
 301 301 335 335 335 335 335 335 41 41 293 293 293 293 49 49 49 49 249 249
 99 99 99 99 317 317 317 317 183 183 105 105 105 335 335 335 145 145 145 293
 293 293 293 293 49 49 49 49 249 249 99 99 99 317 317 317 317 317 183 105