# vtk DataFile Version 2.0
Data set from IO Version 6.4.197.9a0dee2
ASCII

DATASET RECTILINEAR_GRID
DIMENSIONS 31 31 31
X_COORDINATES 31 float
-5.850000 5.850000 17.549999 29.249998 40.950001 52.650002 64.349998 76.050003 87.750000 99.449997 111.150002 122.849998 134.549988 146.249985 157.949997 169.649994 181.349991 193.049988 204.749985 216.449997 228.149994 
239.849991 251.549988 263.250000 274.949982 286.649994 298.349976 310.049988 321.750000 333.449982 345.149994 
Y_COORDINATES 31 float
-5.850000 5.850000 17.549999 29.249998 40.950001 52.650002 64.349998 76.050003 87.750000 99.449997 111.150002 122.849998 134.549988 146.249985 157.949997 169.649994 181.349991 193.049988 204.749985 216.449997 228.149994 
239.849991 251.549988 263.250000 274.949982 286.649994 298.349976 310.049988 321.750000 333.449982 345.149994 
Z_COORDINATES 31 float
-5.850000 5.850000 17.549999 29.249998 40.950001 52.650002 64.349998 76.050003 87.750000 99.449997 111.150002 122.849998 134.549988 146.249985 157.949997 169.649994 181.349991 193.049988 204.749985 216.449997 228.149994 
239.849991 251.549988 263.250000 274.949982 286.649994 298.349976 310.049988 321.750000 333.449982 345.149994 
CELL_DATA 27000
SCALARS FeatureIds int 1
LOOKUP_TABLE default
 108 108 108 108 108 144 144 286 286 286 286 286 25 25 25 25 25 25 25 303
 303 303 386 386 346 346 346 32 32 32 108 108 108 108 108 108 144 286 286 286
 286 286 25 25 25 25 25 25 25 303 303 303 303 386 346 346 346 32 32 32
 108 108 108 108 108 108 108 286 286 286 286 286 25 25 25 25 25 25 25 303
 303 303 303 303 346 346 346 18 18 18 108 108 108 108 108 108 178 11 11 11
 11 11 360 360 25 25 25 25 25 25 179 179 179 179 179 18 18 18 18 18
 125 125 125 108 108 178 178 11 11 11 11 11 360 360 360 360 25 247 247 53
 179 179 179 179 179 18 18 18 18 18 125 125 125 125 178 178 178 11 11 11
 11 11 360 360 360 360 53 53 53 53 179 179 179 179 179 18 18 18 18 18
 125 125 125 189 189 307 178 11 11 11 11 11 360 360 360 360 338 338 53 53
 179 179 179 179 179 18 18 18 18 18 299 299 189 189 307 307 307 11 11 11
 11 11 360 360 360 360 338 338 338 296 296 296 296 296 296 299 299 299 299 299
 299 299 189 307 307 307 307 307 11 11 11 11 65 65 65 338 338 338 338 296
 296 296 296 296 296 299 299 299 299 299 299 354 354 307 307 307 307 307 307 11
 11 65 65 65 65 338 338 338 338 296 296 296 296 296 296 299 299 299 299 299
 354 354 354 307 307 307 307 307 235 235 235 235 65 65 65 46 46 46 46 296
 296 296 296 296 296 299 299 299 299 299 354 354 354 109 307 307 307 235 235 235
 235 235 235 65 46 46 46 46 46 296 296 296 296 296 296 299 299 299 299 299
 299 109 109 109 109 109 235 235 235 235 235 235 235 316 316 46 46 46 46 46
 229 229 229 229 229 299 299 299 299 299 299 109 109 109 109 109 235 235 235 235
 235 235 235 316 316 316 316 46 46 229 229 229 229 229 148 148 148 299 299 299
 299 109 109 109 109 337 337 235 235 235 235 235 235 316 316 316 316 316 46 229
 229 229 229 229 148 148 148 299 299 299 359 359 359 359 337 337 337 235 235 235
 235 235 235 316 316 316 316 316 285 173 229 173 229 229 148 148 148 251 251 251
 359 359 359 359 359 337 337 337 235 235 235 235 235 316 316 316 285 285 285 285
 173 173 173 173 364 148 251 251 251 251 359 359 359 359 359 359 337 337 177 177
 300 300 300 300 316 285 285 285 285 68 68 68 68 364 364 364 251 251 251 251
 359 359 359 359 359 359 337 177 177 177 300 300 300 300 300 285 285 285 285 68
 68 68 68 364 364 364 364 251 251 251 40 40 40 40 40 40 40 300 177 177
 300 300 300 300 255 255 285 285 285 68 68 68 68 364 364 364 364 364 251 251
 40 40 40 40 40 40 40 300 300 300 300 300 300 255 255 255 255 27 68 68
 68 68 68 364 364 364 364 364 364 364 40 40 40 40 40 40 40 300 300 300
 300 300 255 255 255 255 255 27 27 68 68 68 68 364 364 364 364 364 364 364
 40 40 40 40 40 40 40 300 300 300 56 56 56 255 255 255 27 27 27 27
 68 68 68 364 364 364 364 364 32 32 40 40 40 40 40 40 40 300 300 56
 56 56 56 255 255 255 27 27 27 27 207 207 207 207 364 32 32 32 32 32
 272 272 272 272 272 272 272 272 56 56 56 56 56 56 350 255 27 27 27 27
 389 369 369 369 32 32 32 32 32 32 272 272 272 272 272 272 272 250 250 56
 56 56 56 350 350 350 27 389 389 389 389 369 369 369 32 32 32 32 32 32
 272 272 272 272 272 272 250 250 250 250 56 350 350 350 350 350 350 389 389 389
 389 369 369 369 369 32 32 32 32 32 272 272 272 272 272 272 250 250 250 250
 250 350 350 350 350 350 350 389 389 389 389 369 369 369 369 32 32 32 32 32
 272 272 272 272 144 144 250 250 250 250 250 350 350 350 25 25 25 389 389 389
 389 369 369 386 346 346 32 32 32 32 108 108 108 108 144 144 144 250 250 250
 250 350 350 25 25 25 25 25 389 389 389 369 386 386 346 346 346 32 32 32
 108 108 108 108 144 144 144 144 286 286 286 286 25 25 25 25 25 25 25 303
 303 303 303 386 386 346 32 32 32 32 108 108 108 108 108 108 144 286 286 286
 286 286 25 25 25 25 25 25 25 303 303 303 303 303 386 346 346 32 32 32
 108 108 108 108 108 108 108 178 286 286 286 286 360 25 25 25 25 317 317 303
 303 303 303 303 303 346 35 35 35 35 108 108 108 108 108 178 178 178 11 11
 11 11 360 360 25 25 25 317 317 317 303 303 303 303 333 35 35 35 35 35
 206 125 125 108 178 178 178 178 11 11 11 360 360 360 360 360 53 53 53 53
 53 179 179 333 333 35 35 18 35 206 206 206 125 125 178 178 178 178 11 11
 11 360 360 360 360 360 53 53 53 53 53 179 179 333 333 18 18 18 18 206
 206 206 125 189 307 178 178 11 11 11 11 11 360 360 360 360 53 53 53 53
 53 179 179 333 333 18 18 18 18 206 299 206 189 307 307 307 307 11 11 11
 11 11 360 360 360 360 53 53 53 53 296 296 217 217 333 299 299 299 299 299
 299 299 307 307 307 307 307 307 11 11 11 11 65 65 65 65 338 338 53 296
 296 296 296 296 296 299 299 299 299 299 299 354 354 307 307 307 307 307 307 235
 131 65 65 65 65 65 338 89 89 296 296 296 296 296 296 299 299 299 299 299
 354 354 354 307 307 307 307 307 235 235 235 65 65 65 65 65 46 89 89 296
 296 296 296 296 296 299 299 299 299 299 354 354 354 307 307 307 307 235 235 235
 235 235 65 65 65 46 46 89 89 89 296 296 296 296 296 299 299 299 299 299
 354 354 109 109 109 109 235 235 235 235 235 235 235 316 316 316 46 46 89 89
 229 229 229 256 256 299 299 299 299 299 299 109 109 109 109 109 235 235 235 235
 235 235 235 316 316 316 316 316 89 173 173 173 229 229 148 148 148 299 299 299
 299 109 109 109 109 337 235 235 235 235 129 129 129 316 316 316 316 316 173 173
 173 173 173 173 148 148 148 251 299 299 359 359 359 359 337 337 337 235 235 235
 129 129 129 316 316 316 316 316 173 173 173 173 173 173 148 148 251 251 251 251
 359 359 359 359 359 337 337 235 235 235 235 129 129 316 316 316 285 285 173 173
 173 173 173 173 173 251 251 251 251 251 359 359 359 359 359 359 337 177 177 177
 177 177 300 227 227 285 285 285 285 173 173 173 173 364 364 364 251 251 251 251
 359 359 359 359 359 40 40 177 177 177 177 177 300 227 227 227 285 285 285 68
 68 68 68 364 364 364 364 251 251 251 40 40 40 40 40 40 40 177 177 177
 177 177 300 227 227 227 285 285 68 68 68 68 68 364 364 364 364 364 251 251
 40 40 40 40 40 40 79 79 177 177 177 177 300 255 255 255 255 27 68 68
 68 68 68 364 364 364 364 364 364 364 40 40 40 40 40 40 79 79 79 177
 56 56 56 255 255 255 27 27 27 68 68 68 68 364 364 364 364 364 364 364
 40 40 40 40 40 40 79 79 79 56 56 56 56 255 255 255 27 27 27 27
 207 207 207 364 364 364 364 364 364 364 40 40 40 40 40 40 40 79 79 56
 56 56 56 56 255 27 27 27 27 27 207 207 207 207 374 374 32 32 32 32
 272 272 272 272 272 272 213 213 213 56 56 56 56 56 350 27 27 27 27 27
 207 207 207 207 374 32 32 32 32 32 272 272 272 272 272 272 213 213 213 213
 56 56 350 350 350 350 27 27 389 389 389 389 369 369 32 32 32 32 32 32
 272 272 272 272 272 272 213 213 213 213 350 350 350 350 350 350 350 389 389 389
 389 389 369 369 32 32 32 32 32 32 272 272 272 272 272 144 250 213 213 213
 350 350 350 350 350 350 350 389 389 389 389 389 369 369 32 32 32 32 32 32
 272 272 272 272 144 144 144 250 213 213 350 350 350 350 350 350 25 389 389 389
 389 389 386 386 386 32 32 32 32 32 108 108 108 144 144 144 144 144 250 250
 350 350 350 350 25 25 25 25 389 389 389 389 386 386 386 346 32 32 32 32
 233 233 233 233 144 144 144 144 286 286 286 350 350 350 350 25 25 25 303 303
 303 303 303 386 386 346 32 32 32 32 233 233 233 233 233 108 144 144 286 286
 286 286 350 25 25 25 25 317 317 303 303 303 303 303 303 346 32 32 32 32
 233 233 233 233 233 108 178 178 93 93 93 93 360 25 25 25 317 317 317 303
 303 303 303 303 303 35 35 35 35 35 233 233 233 233 233 178 178 178 93 93
 93 93 360 360 360 25 317 317 317 317 303 303 303 303 333 35 35 35 35 35
 206 206 233 233 178 178 178 178 178 93 93 93 360 360 360 360 317 317 317 53
 53 303 333 333 333 35 35 35 35 206 206 206 206 201 201 178 178 178 93 93
 93 93 360 360 360 360 53 53 53 53 53 179 333 333 333 35 35 35 35 206
 206 206 206 201 201 201 178 178 93 93 93 93 360 360 360 360 53 53 53 53
 53 53 333 333 333 333 35 35 206 206 206 206 206 307 307 307 307 307 93 93
 93 93 65 65 65 360 53 53 53 53 53 217 217 217 333 333 35 35 206 206
 299 206 307 307 307 307 307 307 131 131 93 93 65 65 65 65 53 53 53 53
 296 217 217 217 217 217 299 299 299 299 299 354 307 307 307 307 307 307 131 131
 131 65 65 65 65 65 65 89 89 89 89 217 217 217 217 299 299 299 299 299
 354 354 354 307 307 307 307 307 131 131 131 65 65 65 65 65 89 89 89 89
 89 256 256 296 296 299 299 299 299 299 354 354 354 307 307 307 307 235 235 235
 235 235 65 65 65 65 89 89 89 89 256 256 256 256 256 299 299 299 299 299
 354 354 109 109 109 307 235 235 235 235 235 235 235 65 106 316 106 89 89 89
 256 256 256 256 256 196 196 196 299 299 146 109 109 109 109 109 235 235 235 235
 235 235 235 316 316 316 316 316 89 173 173 173 256 256 256 196 196 196 196 299
 146 98 109 109 109 337 235 235 235 235 129 129 129 316 316 316 316 316 173 173
 173 173 173 173 173 357 196 196 196 146 98 98 98 98 337 337 235 235 235 235
 129 129 129 316 316 316 316 173 173 173 173 173 173 173 357 357 251 251 251 251
 98 98 98 98 98 337 235 235 235 235 235 129 129 227 316 316 285 173 173 173
 173 173 173 173 357 357 251 251 251 251 98 98 98 98 98 359 187 177 177 177
 177 177 227 227 227 227 285 285 173 173 173 173 173 173 364 364 251 251 251 251
 98 98 40 40 40 40 187 177 177 177 177 177 227 227 227 227 227 285 173 173
 68 68 68 364 364 364 364 251 251 251 192 40 40 40 40 40 187 79 177 177
 177 177 227 227 227 227 227 227 68 68 68 68 68 364 364 364 364 364 251 192
 40 40 40 40 40 40 79 79 79 177 177 177 227 227 227 227 227 27 68 68
 68 68 68 364 364 364 364 364 364 192 40 40 40 40 40 40 79 79 79 79
 56 56 56 227 227 227 227 27 27 68 68 68 68 364 364 364 364 364 364 192
 40 40 40 40 40 40 79 79 79 56 56 56 56 56 227 227 27 27 27 207
 207 207 207 207 374 374 374 374 374 192 40 40 40 40 40 40 79 79 79 56
 56 56 56 56 255 27 27 27 27 207 207 207 207 207 374 374 374 374 32 32
 272 272 272 272 272 213 213 213 213 56 56 56 56 350 350 350 27 27 27 207
 207 207 207 207 374 374 374 32 32 32 272 272 272 272 272 213 213 213 213 213
 56 350 350 350 350 350 350 27 389 389 207 207 207 207 374 32 32 32 32 32
 272 272 272 272 272 213 213 213 213 213 350 350 350 350 350 350 350 389 389 389
 389 389 369 369 32 32 32 32 32 32 272 272 272 272 272 213 213 213 213 213
 350 350 350 350 350 350 350 389 389 389 389 389 369 386 32 32 32 32 32 32
 233 233 233 272 144 144 144 213 213 213 350 350 350 350 350 350 350 389 389 389
 389 389 386 386 386 32 32 32 32 32 233 233 233 233 144 144 144 144 213 213
 350 350 350 350 350 350 350 389 389 389 303 303 386 386 386 32 32 32 32 32
 233 233 233 233 233 144 144 262 262 262 262 350 350 350 350 350 25 317 303 303
 303 303 303 303 303 32 32 32 32 32 233 233 233 233 233 4 4 262 262 262
 262 262 350 350 25 317 317 317 317 303 303 303 303 303 303 340 32 32 35 35
 233 233 233 233 233 4 4 262 262 262 262 262 225 225 317 317 317 317 317 303
 303 303 303 303 303 35 35 35 35 35 206 233 233 233 4 4 178 178 262 262
 93 93 93 128 128 317 317 317 317 317 303 303 303 303 35 35 35 35 35 35
 206 206 206 201 201 178 178 178 93 93 93 93 360 360 128 128 317 317 317 317
 53 303 333 333 333 35 35 35 35 206 206 206 206 201 201 201 178 178 93 93
 93 93 360 360 360 128 317 317 53 53 53 53 333 333 333 35 35 35 35 206
 206 206 206 201 201 201 201 178 93 93 93 93 93 360 360 360 53 53 53 53
 53 53 333 333 333 35 35 35 206 206 206 206 206 201 201 201 201 178 93 93
 93 93 65 65 65 65 53 53 53 53 53 217 217 217 333 35 35 35 206 206
 206 311 311 311 307 307 307 307 131 131 131 93 65 65 65 65 65 53 53 53
 53 217 217 217 217 249 249 299 206 206 299 311 311 311 307 307 307 307 131 131
 131 65 65 65 65 65 65 89 89 89 89 217 217 217 64 249 249 299 299 299
 354 311 311 311 307 307 307 307 131 131 131 65 65 65 65 65 89 89 89 89
 89 256 256 256 256 249 196 299 299 299 354 354 311 311 307 307 307 235 235 391
 391 391 65 65 65 106 89 89 89 89 256 256 256 256 256 196 196 196 196 299
 146 146 146 146 168 307 235 235 235 235 391 391 391 65 106 106 106 89 89 89
 256 256 256 256 256 196 196 196 196 196 146 146 146 146 168 235 235 235 235 235
 235 391 391 106 106 106 106 106 173 173 173 256 256 256 256 196 196 196 196 196
 146 146 146 146 146 235 235 235 235 235 183 183 183 106 106 106 106 106 173 173
 173 173 173 173 357 357 196 196 196 146 98 98 98 98 98 235 235 235 235 183
 183 183 183 106 106 106 106 173 173 173 173 173 173 173 357 357 212 212 212 212
 98 98 98 98 98 98 187 235 183 183 183 183 227 227 227 106 106 173 173 173
 173 173 173 357 357 357 357 212 212 98 98 98 98 98 98 187 187 187 187 187
 183 183 227 227 227 227 227 173 173 173 173 173 173 357 357 357 357 151 251 98
 98 98 98 98 40 187 187 187 187 187 187 227 227 227 227 227 227 173 173 173
 173 173 173 357 357 364 364 151 151 192 192 192 192 40 40 187 187 187 187 187
 187 227 227 227 227 227 227 227 68 68 68 68 68 357 364 364 364 151 151 192
 192 192 40 40 40 40 79 79 79 79 177 227 227 227 227 227 227 227 68 68
 68 68 68 364 364 364 364 364 151 192 192 40 40 40 40 79 79 79 79 79
 56 227 227 227 227 227 227 227 27 207 207 207 207 207 374 374 374 374 374 192
 40 40 40 40 40 79 79 79 79 79 56 56 227 227 227 227 227 27 27 207
 207 207 207 207 374 374 374 374 374 192 40 40 40 40 40 40 79 79 79 79
 56 56 56 227 216 216 27 27 103 207 207 207 207 207 374 374 374 374 374 371
 371 40 40 40 40 213 213 213 213 107 56 56 350 350 216 216 103 103 103 207
 207 207 207 374 374 374 374 374 32 371 371 272 272 272 272 213 213 213 213 213
 107 350 350 350 350 350 103 103 103 103 207 207 290 374 374 374 374 32 32 371
 371 272 272 272 15 213 213 213 213 213 350 350 350 350 350 350 103 103 103 389
 389 290 290 290 374 32 32 32 32 32 371 272 272 15 15 15 213 213 213 213
 350 350 350 350 350 350 350 103 389 389 389 389 290 290 32 32 32 32 32 32
 233 233 233 233 15 15 213 213 213 213 350 350 350 350 350 350 350 389 389 389
 389 389 303 386 32 32 32 32 32 32 233 233 233 233 144 144 144 213 213 213
 350 350 350 350 350 350 350 389 389 389 303 303 303 386 386 32 32 32 32 32
 233 233 233 233 233 233 4 262 262 262 262 350 350 350 350 350 350 317 303 303
 303 303 303 340 340 340 54 54 54 54 233 233 233 233 233 4 4 262 262 262
 262 262 225 225 225 350 317 317 317 303 303 303 303 340 340 340 54 54 54 54
 233 233 233 233 4 4 4 262 262 262 262 262 225 225 225 317 317 317 317 303
 303 303 303 340 340 340 35 54 35 35 206 233 233 4 4 4 4 262 262 262
 262 262 262 128 128 128 317 317 317 317 303 303 303 340 340 35 35 35 35 35
 206 206 206 4 4 4 4 262 262 93 93 93 93 128 128 128 317 317 317 317
 303 303 333 333 333 35 35 35 35 206 206 206 206 201 201 23 23 23 93 93
 93 93 93 128 128 128 34 34 34 53 53 333 333 333 333 35 35 35 35 206
 206 206 201 201 201 201 23 23 93 93 93 93 93 128 128 128 34 34 53 53
 53 170 170 333 170 35 35 35 206 206 206 206 201 201 201 201 201 23 93 93
 93 93 93 65 65 128 53 53 53 53 53 217 170 170 170 35 35 35 206 206
 206 311 311 311 311 132 132 132 131 131 93 93 65 65 65 65 65 89 53 53
 64 64 64 64 64 249 249 249 206 206 206 311 311 311 311 132 132 132 131 131
 131 65 65 65 65 65 65 89 89 89 89 64 64 64 64 249 249 249 249 206
 311 311 311 311 311 132 132 132 131 131 391 391 65 65 65 65 89 89 89 89
 256 256 256 256 256 249 249 249 249 249 146 311 311 311 311 132 132 235 391 391
 391 391 65 65 65 106 106 89 89 89 256 256 256 256 256 196 196 196 196 196
 146 331 146 146 168 168 168 235 391 391 391 391 391 106 106 106 106 106 89 256
 256 256 256 256 256 196 196 196 196 196 146 146 146 146 168 168 168 183 183 391
 391 391 391 106 106 106 106 106 173 173 256 256 256 256 256 196 196 196 196 146
 146 146 146 146 168 168 168 183 183 183 183 183 183 106 106 106 106 106 173 173
 173 173 173 357 357 357 196 212 212 146 146 146 146 98 98 168 168 183 183 183
 183 183 183 106 106 106 106 106 173 173 173 173 173 357 357 357 212 212 212 146
 98 98 98 98 98 187 187 187 183 183 183 183 183 227 106 106 106 173 173 173
 173 173 173 357 357 357 357 212 212 98 98 98 98 98 98 187 187 187 187 187
 183 183 227 227 227 227 227 173 173 173 173 173 173 357 357 357 357 151 151 98
 192 192 98 98 187 187 187 187 187 187 187 227 227 227 227 227 227 173 173 173
 173 173 173 357 357 357 151 151 151 192 192 192 192 192 187 187 187 187 187 187
 187 227 227 227 227 227 227 227 173 173 173 173 173 357 357 151 151 151 151 192
 192 192 192 40 40 187 187 187 187 187 187 227 227 227 227 227 227 227 41 41
 41 41 41 41 364 151 151 151 151 192 192 192 192 40 40 79 79 79 79 79
 187 227 227 227 227 227 227 227 41 41 41 41 41 41 374 374 374 374 151 192
 192 192 40 40 40 79 79 79 79 79 56 227 227 227 227 227 227 103 103 207
 207 207 207 374 374 374 374 374 374 192 371 40 40 160 160 160 79 79 79 107
 107 227 227 216 216 216 103 103 103 207 207 207 207 374 374 374 374 374 374 371
 371 371 160 160 160 160 213 213 107 107 107 350 350 216 216 216 103 103 103 103
 290 290 290 374 374 374 374 374 371 371 371 371 160 160 160 213 213 213 213 107
 107 350 350 350 216 276 103 103 103 290 290 290 290 290 374 374 374 374 371 371
 371 371 15 15 15 15 213 213 213 107 107 350 350 350 350 350 103 103 103 290
 290 290 290 290 374 374 32 32 371 371 371 20 15 15 15 15 15 213 213 213
 350 350 350 350 350 350 103 103 103 290 290 290 290 290 32 32 32 32 32 32
 20 20 233 15 15 15 15 213 213 213 350 350 350 350 350 350 350 103 103 389
 389 290 290 340 32 32 32 32 32 32 233 233 233 233 15 15 15 213 213 213
 350 350 350 350 350 350 350 103 103 303 303 303 303 340 340 32 32 32 32 32
 233 233 233 233 233 4 4 262 262 262 262 284 284 225 284 284 284 133 133 133
 303 303 340 340 340 340 54 54 54 54 233 233 233 233 4 4 4 262 262 262
 262 262 225 225 225 284 284 133 133 133 133 303 340 340 340 340 54 54 54 54
 233 233 233 4 4 4 4 262 262 262 262 262 284 225 284 128 83 83 83 133
 133 303 340 340 340 340 54 54 54 54 206 233 233 4 4 4 4 262 262 262
 262 262 262 128 128 128 83 83 83 133 133 303 340 340 340 35 35 35 35 35
 206 206 206 4 4 4 4 262 262 262 262 262 128 128 128 128 128 83 83 133
 133 170 170 170 170 35 35 35 35 35 206 206 201 201 23 23 23 23 262 93
 93 93 93 128 128 128 34 34 34 34 170 170 170 170 170 149 35 35 35 206
 206 206 201 201 201 23 23 23 93 93 93 93 93 128 128 128 34 34 34 53
 53 170 170 170 170 170 149 35 206 206 206 206 311 201 201 201 23 23 93 93
 93 93 254 254 254 254 34 34 53 53 170 170 170 170 170 170 149 35 206 206
 252 311 311 311 311 132 132 132 131 131 93 93 254 254 254 254 254 89 53 53
 64 64 64 64 64 249 249 249 252 252 252 311 311 311 311 132 132 132 131 131
 131 65 254 254 254 254 254 89 89 89 64 64 64 64 64 249 249 249 249 252
 252 311 311 311 311 132 132 132 391 391 391 391 65 65 65 254 106 89 89 89
 256 256 256 64 64 249 249 249 249 252 252 311 311 311 168 168 168 132 391 391
 391 391 391 203 106 106 106 106 89 256 256 256 256 256 256 249 249 249 249 252
 331 331 146 168 168 168 168 168 391 391 391 391 391 203 106 106 106 106 89 256
 256 256 256 256 256 196 196 196 196 252 146 331 146 146 168 168 168 168 183 391
 391 391 203 203 106 106 106 106 106 256 256 256 256 256 357 196 196 196 196 146
 146 146 146 146 168 168 168 183 183 183 183 183 203 203 106 106 106 106 173 173
 173 173 173 357 357 357 212 212 212 146 146 146 146 146 168 168 168 183 183 183
 183 183 203 203 106 106 106 106 173 173 173 173 173 357 357 357 212 212 212 146
 98 98 98 98 98 187 187 183 183 183 183 183 183 203 106 106 106 173 173 173
 173 173 173 357 357 357 212 212 212 98 98 98 98 98 98 187 187 187 187 183
 183 183 227 227 227 227 314 173 173 173 173 173 326 357 357 357 357 151 151 98
 192 192 192 192 187 187 187 187 187 187 187 227 227 227 227 227 227 385 173 173
 326 326 326 357 357 357 151 151 151 192 192 192 192 192 187 187 187 187 187 187
 187 227 227 227 227 227 227 227 385 326 326 326 326 357 357 151 151 151 151 192
 192 192 192 192 187 187 187 187 187 187 187 227 227 227 227 227 227 227 41 41
 41 41 41 41 357 151 151 151 151 192 192 192 192 192 160 187 187 187 187 187
 187 227 227 227 227 227 227 227 41 41 41 41 41 41 374 374 374 151 151 192
 192 192 160 160 160 160 160 79 79 187 187 227 227 227 227 227 227 103 103 41
 41 41 41 374 374 374 374 374 374 192 192 192 160 160 160 160 160 160 107 107
 107 227 227 216 216 216 216 103 103 103 290 290 290 374 374 374 374 374 374 371
 371 371 160 160 160 160 160 213 107 107 107 107 216 216 216 216 103 103 103 290
 290 290 290 290 374 374 374 374 371 371 371 371 160 160 160 160 213 213 107 107
 107 107 350 216 216 276 103 103 103 290 290 290 290 290 374 374 374 374 371 371
 371 371 15 15 15 15 15 213 107 107 107 350 350 350 350 276 103 103 103 290
 290 290 290 290 374 374 374 32 371 371 20 20 20 15 15 15 15 15 213 107
 107 350 350 350 350 350 103 103 103 290 290 290 290 290 290 374 32 32 371 371
 20 20 20 20 15 15 15 15 213 107 350 350 350 350 350 350 103 103 103 290
 290 290 290 290 290 7 32 32 32 371 20 20 20 20 15 15 15 15 213 107
 350 350 350 350 350 350 103 103 133 133 303 303 303 340 340 7 32 32 32 371
 356 356 356 233 4 4 4 262 262 262 284 284 284 284 284 284 284 133 133 133
 133 133 340 340 340 340 54 54 54 54 356 356 356 4 4 4 4 262 262 262
 262 284 284 284 284 284 284 133 133 133 133 133 340 340 340 340 54 54 54 54
 356 356 356 4 4 4 4 262 262 262 262 262 284 284 284 284 83 83 133 133
 133 133 340 340 340 340 54 54 54 54 206 379 379 4 4 4 4 262 262 262
 262 262 284 284 128 128 83 83 83 133 133 133 340 340 340 35 35 35 35 35
 206 379 379 379 4 4 4 262 262 262 262 262 128 128 128 128 128 83 83 133
 133 170 170 170 170 149 149 35 35 35 206 379 379 379 23 23 23 23 262 262
 262 242 242 128 128 128 302 34 34 34 170 170 170 170 170 149 149 35 35 206
 206 379 379 379 23 23 23 23 93 93 93 242 242 128 128 302 302 302 302 302
 170 170 170 170 170 149 149 149 35 206 252 252 379 311 201 23 23 23 127 127
 127 242 254 254 254 302 302 302 302 302 170 170 170 170 170 170 149 252 252 252
 252 252 311 311 311 132 132 132 114 114 127 127 254 254 254 254 302 302 302 302
 64 64 64 64 170 249 249 249 252 252 252 252 311 311 311 132 132 132 114 114
 114 127 254 254 254 254 254 302 89 89 64 64 64 64 64 249 249 249 252 252
 252 252 311 311 311 132 132 132 391 391 391 391 254 254 254 254 106 89 89 89
 256 256 256 64 249 249 249 249 249 252 252 252 311 168 168 168 168 168 391 391
 391 391 203 203 203 106 106 106 89 256 256 256 256 169 169 249 249 249 249 252
 146 146 146 168 168 168 168 168 391 391 391 391 203 203 203 106 106 106 106 256
 256 256 169 169 169 249 249 249 249 252 146 146 146 168 168 168 168 168 391 391
 391 391 203 203 203 106 106 106 106 256 256 256 169 169 169 196 212 212 212 146
 146 146 146 146 168 168 168 168 183 183 183 203 203 203 203 106 106 106 173 173
 173 173 173 357 357 357 212 212 212 146 146 146 146 146 168 168 168 183 183 183
 183 183 203 203 203 106 106 106 173 173 173 326 326 357 357 357 212 212 212 146
 146 146 266 266 168 168 168 187 183 183 183 183 203 203 314 314 314 314 173 326
 326 326 326 357 357 357 212 212 212 146 266 266 266 266 187 187 187 187 187 187
 183 183 227 227 314 314 314 385 385 326 326 326 326 357 357 357 357 212 212 98
 192 192 192 192 187 187 187 187 187 187 187 227 227 227 227 314 385 385 385 326
 326 326 326 357 357 357 151 151 151 192 192 192 192 192 187 187 187 187 187 187
 187 227 227 227 227 227 385 385 385 326 326 326 326 357 357 151 151 151 151 192
 192 192 192 192 187 187 187 187 187 187 187 227 227 227 227 227 227 385 385 41
 41 41 41 41 374 374 151 151 151 192 192 192 192 160 160 160 187 187 187 187
 187 227 227 227 227 227 227 385 385 41 41 41 41 374 374 374 374 260 260 192
 192 192 160 160 160 160 160 160 187 187 227 227 227 227 216 216 245 245 245 41
 41 41 41 374 374 374 374 374 260 192 192 192 160 160 160 160 160 160 160 107
 107 227 216 216 216 216 245 245 245 103 290 290 290 374 374 374 374 374 374 371
 371 371 160 160 160 160 160 160 107 107 107 107 216 216 216 216 103 103 103 103
 290 290 290 374 374 374 374 374 371 371 371 371 160 160 160 160 160 160 107 107
 107 107 216 216 216 216 103 103 103 290 290 290 290 290 374 374 374 374 371 371
 371 371 20 15 15 15 15 15 107 107 107 350 350 350 216 103 103 103 103 290
 290 290 290 290 374 374 7 374 371 371 20 20 20 20 15 15 15 15 107 107
 107 350 350 350 350 103 103 103 103 290 290 290 290 290 7 7 7 7 371 371
 20 20 20 20 15 15 15 15 107 107 350 350 350 350 350 350 103 103 103 290
 290 290 290 290 7 7 7 7 30 30 20 20 20 20 15 15 15 15 107 107
 350 350 284 284 284 350 103 133 133 133 133 133 303 340 7 7 7 7 30 30
 356 356 356 356 4 4 90 90 262 262 284 284 284 284 284 284 284 133 133 133
 133 133 340 340 7 7 7 30 30 30 356 356 356 356 4 4 4 262 262 262
 262 284 284 284 284 284 284 133 133 133 133 133 340 340 340 340 54 54 30 30
 356 356 356 4 4 4 4 262 262 262 262 284 284 284 284 284 83 133 133 133
 133 133 340 340 340 261 54 54 54 54 379 379 379 379 379 4 4 262 262 262
 262 262 284 284 284 284 83 133 133 133 133 133 170 340 261 261 261 35 35 35
 379 379 379 379 379 379 4 262 262 262 262 262 284 128 128 128 302 302 302 325
 325 170 170 170 261 149 149 149 35 35 379 379 379 379 379 379 23 124 262 262
 242 242 242 242 128 302 302 302 302 325 325 170 170 170 170 149 149 149 35 206
 379 379 379 379 379 379 379 124 127 262 242 242 242 242 128 302 302 302 302 325
 325 170 170 170 170 149 149 149 252 252 252 252 379 379 379 379 379 127 127 127
 127 242 242 254 254 302 302 302 302 325 325 170 170 170 170 261 261 252 252 252
 252 252 252 311 311 132 132 127 127 127 127 127 254 254 254 302 302 302 302 325
 64 170 170 170 170 249 249 252 252 252 252 252 252 311 311 132 132 132 114 114
 127 127 254 254 254 254 302 302 302 325 64 64 64 64 170 249 249 249 252 252
 252 252 252 311 168 168 168 168 114 114 114 391 254 254 254 203 268 268 268 268
 256 169 169 169 169 249 249 249 252 252 252 252 252 168 168 168 168 168 391 391
 391 391 203 203 203 203 106 268 268 256 256 169 169 169 169 184 249 249 252 252
 252 252 252 168 168 168 168 168 391 391 391 391 203 203 203 203 106 106 268 256
 256 169 169 169 169 169 141 141 252 252 146 146 146 168 168 168 168 168 96 96
 391 203 203 203 203 203 106 106 106 256 256 169 169 169 169 141 141 141 141 146
 146 146 146 168 168 168 168 168 183 183 183 203 203 203 203 203 106 106 232 232
 173 169 169 169 357 141 141 141 212 146 146 266 266 266 168 168 168 168 183 183
 183 203 203 203 203 203 106 198 232 326 326 326 326 357 357 357 212 212 212 146
 266 266 266 266 266 168 168 187 183 183 330 330 330 295 314 314 314 314 385 326
 326 326 326 326 134 134 134 212 212 266 266 266 266 266 266 187 187 187 187 187
 330 330 330 295 314 314 314 385 385 326 326 326 326 326 134 134 134 134 134 266
 266 266 266 266 266 187 187 187 187 187 330 330 330 295 295 314 385 385 385 326
 326 326 326 326 134 134 134 260 260 228 192 192 192 192 187 187 187 187 187 187
 187 227 227 227 295 385 385 385 385 385 326 326 326 326 134 260 260 260 260 228
 192 192 192 192 160 187 187 187 187 187 187 227 227 227 227 385 385 385 385 385
 41 41 278 278 278 260 260 260 260 260 192 192 192 160 160 160 160 187 187 187
 187 227 227 227 227 227 385 385 385 385 41 41 278 278 278 374 260 260 260 260
 192 192 160 160 160 160 160 160 160 187 187 227 227 227 216 216 245 245 245 245
 41 41 278 278 374 374 374 260 260 260 158 160 160 160 160 160 160 160 160 160
 107 216 216 216 216 216 245 245 245 245 290 290 290 374 374 374 374 374 260 158
 371 160 160 160 160 160 160 160 160 107 107 216 216 216 216 216 245 245 245 103
 290 290 290 374 374 374 374 374 371 371 371 371 160 160 160 160 160 160 107 107
 107 107 216 216 216 216 103 103 103 103 290 290 290 290 374 374 374 374 371 371
 371 20 20 160 160 160 160 160 107 107 107 392 350 216 216 216 103 103 103 103
 290 290 290 290 7 7 7 7 371 371 20 20 20 20 15 15 15 15 107 107
 107 350 350 240 240 240 103 103 103 290 290 290 290 7 7 7 7 7 30 30
 20 20 20 20 15 15 15 15 107 107 171 350 350 240 240 240 103 103 133 133
 133 290 290 7 7 7 7 7 30 30 30 20 20 20 15 15 15 15 171 171
 171 284 284 240 240 284 284 133 133 133 133 133 133 7 7 7 7 7 30 30
 30 356 356 356 90 90 90 90 90 171 171 284 284 284 284 284 283 283 133 133
 133 133 133 7 7 7 7 30 30 30 356 356 356 356 379 90 90 90 90 90
 171 284 284 284 284 284 283 283 133 133 133 133 133 340 7 7 7 30 30 30
 356 356 356 379 379 379 90 90 90 262 262 284 284 284 284 284 283 283 133 133
 133 133 273 273 273 261 348 348 348 30 379 379 379 379 379 379 90 90 90 262
 262 262 284 284 284 284 283 283 133 133 325 325 273 273 261 261 261 348 348 348
 379 379 379 379 379 379 124 124 124 262 262 242 242 284 128 302 302 302 325 325
 325 325 170 261 261 261 261 261 348 348 379 379 379 379 379 379 124 124 124 124
 242 242 242 242 128 302 302 302 325 325 325 325 170 261 261 261 261 261 261 252
 379 379 379 379 379 379 124 124 124 124 242 242 242 242 242 302 302 302 302 325
 325 170 170 170 261 261 261 261 252 252 252 252 379 379 379 379 379 124 127 127
 127 242 242 242 242 302 302 302 302 325 325 170 170 170 261 261 261 252 252 252
 252 252 252 379 259 259 259 259 127 127 127 127 127 254 254 302 302 302 302 325
 325 170 170 170 170 261 249 252 252 252 252 252 252 259 259 259 259 259 127 127
 127 127 193 193 193 302 302 302 302 325 325 169 169 184 184 184 249 252 252 252
 252 252 252 311 259 259 259 259 114 127 127 127 193 193 193 193 268 268 268 268
 169 169 169 169 184 184 184 252 252 252 252 252 252 168 168 168 168 168 96 96