# vtk DataFile Version 2.0
Data set from IO Version 6.4.197.9a0dee2
ASCII

DATASET RECTILINEAR_GRID
DIMENSIONS 31 31 31
X_COORDINATES 31 float
-5.850000 5.850000 17.549999 29.249998 40.950001 52.650002 64.349998 76.050003 87.750000 99.449997 111.150002 122.849998 134.549988 146.249985 157.949997 169.649994 181.349991 193.049988 204.749985 216.449997 228.149994 
239.849991 251.549988 263.250000 274.949982 286.649994 298.349976 310.049988 321.750000 333.449982 345.149994 
Y_COORDINATES 31 float
-5.850000 5.850000 17.549999 29.249998 40.950001 52.650002 64.349998 76.050003 87.750000 99.449997 111.150002 122.849998 134.549988 146.249985 157.949997 169.649994 181.349991 193.049988 204.749985 216.449997 228.149994 
239.849991 251.549988 263.250000 274.949982 286.649994 298.349976 310.049988 321.750000 333.449982 345.149994 
Z_COORDINATES 31 float
-5.850000 5.850000 17.549999 29.249998 40.950001 52.650002 64.349998 76.050003 87.750000 99.449997 111.150002 122.849998 134.549988 146.249985 157.949997 169.649994 181.349991 193.049988 204.749985 216.449997 228.149994 
239.849991 251.549988 263.250000 274.949982 286.649994 298.349976 310.049988 321.750000 333.449982 345.149994 
CELL_DATA 27000
SCALARS FeatureIds int 1
LOOKUP_TABLE default
 120 120 120 120 120 120 120 120 341 341 242 242 242 295 295 295 295 173 173 173
 173 173 392 392 392 392 310 310 310 310 120 120 120 120 120 120 120 120 242 242
 242 242 242 242 295 295 295 173 173 173 173 173 392 392 392 310 310 310 310 310
 120 120 120 120 120 120 120 120 242 242 242 242 242 242 11 11 11 11 173 173
 173 357 357 236 236 236 236 236 236 310 338 338 120 120 120 120 252 252 252 242
 242 242 242 185 11 11 11 11 11 357 357 357 357 236 236 236 236 236 236 128
 128 338 338 381 381 381 252 252 252 242 242 242 185 185 185 11 11 11 11 357
 357 357 357 236 236 236 236 236 236 128 128 338 338 381 381 381 252 252 252 252
 242 185 185 185 185 70 70 70 70 357 357 357 357 236 236 236 236 236 128 128
 128 338 338 381 381 381 252 252 252 252 242 185 185 185 70 70 70 70 263 263
 263 357 357 236 236 236 202 202 128 128 128 338 338 381 381 381 27 252 252 56
 56 185 185 70 70 70 70 70 263 263 263 263 194 236 369 202 202 202 202 128
 128 338 338 17 17 17 27 27 56 56 56 186 400 186 70 70 70 70 263 263
 263 263 194 194 369 369 369 202 202 202 128 360 360 17 17 17 17 56 56 56
 56 186 186 186 186 70 70 70 263 263 263 194 194 194 369 369 369 369 404 202
 276 276 360 17 17 17 17 56 56 56 56 94 186 186 186 186 257 257 257 257
 257 194 194 194 369 369 369 369 152 174 276 276 276 17 17 17 17 56 56 94
 94 94 94 186 186 257 257 257 257 257 257 26 26 26 369 369 369 152 152 174
 276 276 276 276 110 110 110 110 94 94 94 94 94 186 186 257 257 257 257 257
 393 393 393 26 369 234 234 234 152 276 276 276 276 276 110 110 110 110 94 94
 94 94 372 372 372 383 383 383 257 393 393 393 393 26 213 234 234 234 276 276
 276 276 276 276 110 110 110 110 372 372 372 372 372 372 372 383 383 383 132 132
 132 393 393 213 213 213 182 182 276 276 276 376 376 376 376 376 110 110 372 372
 372 372 372 372 189 189 383 383 132 132 132 132 213 213 213 18 182 182 182 276
 376 376 376 376 376 376 376 376 372 372 372 372 372 189 189 189 189 189 132 132
 132 132 213 213 18 18 18 182 182 276 376 376 376 376 376 376 376 331 372 372
 372 372 372 189 189 189 189 189 132 132 132 132 213 213 18 18 18 182 182 276
 376 376 376 376 376 376 331 331 105 105 105 105 148 148 189 189 189 189 337 337
 337 337 374 374 18 18 18 18 182 276 376 376 376 376 376 376 331 331 105 105
 105 105 148 148 148 189 189 189 337 337 337 337 374 374 262 262 262 262 262 262
 376 376 376 376 376 376 331 164 164 164 105 178 148 148 148 189 328 328 337 337
 337 282 282 374 262 262 262 262 262 379 376 376 376 376 376 46 164 164 164 164
 178 178 178 178 83 83 328 328 328 337 337 282 282 282 262 262 262 262 262 379
 91 376 376 376 46 46 46 164 164 164 178 178 178 178 178 178 328 328 328 328
 282 282 282 305 262 262 262 262 91 91 91 91 139 46 46 46 46 164 178 178
 178 178 178 178 178 178 328 328 328 328 305 305 305 305 305 262 262 262 262 91
 91 139 139 139 46 46 46 178 178 178 178 178 178 80 80 80 13 13 13 13
 243 305 305 305 305 262 390 390 390 390 314 139 139 139 139 139 139 35 35 35
 178 178 80 80 80 80 13 13 13 243 243 243 305 305 79 79 390 390 390 390
 314 314 314 139 139 139 139 35 35 35 275 178 80 80 80 80 13 13 13 243
 243 243 243 79 79 79 79 390 390 390 314 314 314 139 139 139 139 275 275 275
 275 178 80 80 80 295 13 173 173 173 243 243 243 79 79 79 79 390 390 314
 314 314 314 139 139 120 120 275 275 275 275 178 80 80 295 295 295 173 173 173
 173 173 392 392 79 79 79 390 310 314 314 314 120 120 120 120 120 341 341 341
 341 341 80 295 295 295 295 173 173 173 173 173 392 392 392 392 310 310 310 310
 120 120 120 120 120 319 319 341 341 341 341 341 242 116 295 295 295 173 173 173
 173 173 392 392 392 392 310 310 310 310 299 120 120 120 120 120 120 341 341 242
 242 242 242 116 116 295 295 173 173 173 173 173 392 392 392 236 236 236 236 310
 299 299 120 120 120 120 120 120 242 242 242 242 242 116 116 11 11 11 173 173
 357 357 357 236 236 236 236 236 236 236 299 299 299 120 381 381 381 252 242 242
 242 242 242 185 185 11 11 11 209 357 357 357 357 236 236 236 236 236 236 128
 128 338 338 381 381 381 381 252 252 242 242 242 185 185 185 185 11 209 209 357
 357 357 357 236 236 236 236 236 128 128 128 128 338 381 381 381 381 252 252 242
 242 185 185 185 185 185 70 70 209 357 357 357 357 236 236 236 236 236 128 128
 128 128 338 381 381 381 381 252 252 252 242 185 185 185 185 185 70 70 263 357
 357 357 357 236 236 236 202 202 128 128 128 128 338 381 381 381 381 252 56 56
 56 185 185 185 185 70 70 70 263 263 263 357 357 236 369 202 202 202 202 128
 128 360 360 360 17 17 17 56 56 56 56 186 186 186 186 70 70 70 263 263
 263 194 194 194 194 369 202 202 202 202 360 360 360 360 17 17 17 56 56 56
 56 186 186 186 186 186 70 5 5 5 5 194 194 194 194 369 369 202 202 202
 276 360 360 360 17 17 17 56 56 56 56 186 186 186 186 186 257 257 257 5
 5 194 194 194 194 369 369 369 152 174 276 276 360 360 346 17 17 56 56 56
 94 94 186 186 186 186 257 257 257 257 393 393 26 26 369 369 234 234 234 234
 276 276 346 346 346 346 110 110 56 94 94 94 372 372 186 383 257 257 257 393
 393 393 393 26 234 234 234 234 234 276 276 276 346 346 346 346 110 110 372 372
 372 372 372 372 372 383 383 383 383 393 393 393 393 393 234 234 234 234 234 276
 276 276 346 346 346 346 346 346 372 372 372 372 372 372 372 383 383 383 132 132
 132 393 393 213 213 234 234 234 234 276 276 376 376 346 346 346 346 346 372 372
 372 372 372 372 189 189 383 383 132 132 132 132 213 213 213 234 234 234 234 276
 376 376 376 376 376 376 376 376 372 372 372 372 372 372 189 189 189 189 132 132
 132 132 213 213 18 18 18 182 182 276 376 376 376 376 376 376 331 331 372 372
 372 372 372 189 189 189 189 189 132 132 132 124 124 124 18 18 18 182 182 276
 376 376 376 376 376 331 331 331 331 105 105 105 105 189 189 189 189 189 337 337
 337 337 374 374 124 124 18 18 182 91 376 376 376 376 376 331 331 331 331 105
 105 105 105 189 189 189 189 337 337 337 337 337 374 374 374 124 262 262 91 91
 376 376 376 376 376 331 331 331 164 105 105 105 178 178 189 189 328 328 337 337
 337 337 374 374 124 262 262 262 91 91 91 376 376 376 376 331 331 164 164 164
 178 178 178 178 178 189 328 328 328 337 337 282 305 305 262 262 262 262 91 91
 91 91 376 376 46 46 164 164 164 178 178 178 178 178 178 178 328 328 328 328
 305 305 305 305 305 262 262 262 91 91 91 91 139 139 46 46 46 164 178 178
 178 178 178 178 178 178 328 328 328 328 305 305 305 305 305 305 262 262 91 91
 91 139 139 139 139 139 332 178 178 178 178 178 178 178 178 80 13 13 13 243
 243 305 305 305 305 305 390 390 390 91 139 139 139 139 139 139 139 178 178 178
 178 178 178 178 80 80 13 13 13 243 243 243 305 305 79 79 79 390 390 390
 139 139 139 139 139 139 139 178 178 178 178 178 178 80 80 295 13 13 243 243
 243 243 243 79 79 79 79 390 390 195 314 139 139 139 139 139 139 341 341 341
 275 178 80 80 295 295 295 173 173 173 243 243 243 79 79 79 79 390 195 314
 314 139 139 139 139 319 319 341 341 341 341 341 80 295 295 295 295 173 173 173
 173 243 243 392 79 79 79 79 195 195 314 139 139 139 319 319 319 341 341 341
 341 341 341 295 295 295 295 173 173 173 173 173 392 392 392 392 310 310 310 310
 299 299 120 120 319 319 319 341 341 341 341 341 341 116 116 295 219 173 173 173
 173 173 173 392 392 392 236 236 236 299 299 299 299 120 319 319 319 341 341 341
 242 242 242 116 116 116 219 173 173 173 173 173 173 392 236 236 236 236 236 299
 299 299 299 299 120 120 381 381 242 242 242 242 242 116 116 116 11 209 209 357
 357 357 357 236 236 236 236 236 236 299 299 299 299 299 381 381 381 381 242 242
 242 242 242 185 185 185 209 209 209 357 357 357 357 236 236 236 236 236 236 299
 299 299 299 299 381 381 381 381 242 242 242 242 185 185 185 185 209 209 209 357
 357 357 357 357 236 236 236 236 236 128 128 128 299 381 381 381 381 381 252 242
 242 185 185 185 185 185 209 209 209 357 357 357 357 357 236 236 236 236 128 128
 128 128 338 381 381 381 381 381 252 361 361 185 185 185 185 185 209 209 209 357
 357 357 357 357 236 236 202 202 128 128 128 128 360 360 360 381 381 381 56 361
 361 361 185 185 185 185 70 70 5 357 357 357 86 86 86 202 202 202 202 128
 128 360 360 360 360 17 17 56 56 56 361 361 186 186 186 186 70 5 5 5
 5 86 86 86 194 202 202 202 202 202 360 360 360 360 360 17 17 56 56 56
 56 361 186 186 186 186 186 5 5 5 5 5 194 194 194 369 369 202 202 202
 360 360 360 360 360 17 17 56 56 56 56 186 186 186 186 186 186 5 5 5
 5 5 194 194 194 369 369 234 234 234 385 360 360 360 346 346 17 56 56 56
 56 94 186 186 186 186 186 5 5 5 5 393 393 194 194 234 234 234 234 234
 276 346 346 346 346 346 346 346 56 372 372 372 372 372 366 366 383 383 383 393
 393 393 393 393 234 234 234 234 234 234 276 346 346 346 346 346 346 346 372 372
 372 372 372 372 372 383 383 383 383 393 393 393 393 393 234 234 234 234 234 234
 276 346 346 346 346 346 346 346 149 372 372 372 372 372 372 383 383 383 132 132
 132 393 393 393 234 234 234 234 234 234 346 346 346 346 346 346 346 149 149 149
 372 372 372 372 189 189 189 383 132 132 132 132 393 393 234 234 234 234 234 234
 346 346 346 346 346 346 346 149 149 149 372 372 372 372 189 189 189 189 132 132
 132 132 124 124 124 18 234 234 234 234 85 376 376 376 376 331 331 331 149 149
 372 372 372 189 189 189 189 189 132 132 132 124 124 124 124 124 124 183 183 85
 376 376 376 376 331 331 331 331 331 105 105 105 372 189 189 189 189 189 337 337
 337 124 124 124 124 124 124 183 183 91 91 376 376 376 331 331 331 331 331 105
 105 105 105 189 189 189 189 189 337 337 337 124 124 124 124 124 124 124 91 91
 91 91 376 376 331 331 331 331 164 105 105 105 178 178 189 189 328 328 337 337
 337 124 124 124 124 124 124 91 91 91 91 91 91 249 249 249 249 164 164 178
 178 178 178 178 178 178 328 328 328 337 337 124 124 124 124 124 124 91 91 91
 91 91 91 139 332 332 332 164 164 178 178 178 178 178 178 178 328 328 328 328
 337 305 305 305 305 163 163 91 91 91 91 91 139 139 332 332 332 332 178 178
 178 178 178 178 178 178 328 328 328 328 305 305 305 305 305 305 163 163 91 91
 139 139 139 139 139 332 332 332 178 178 178 178 178 178 178 178 238 13 328 243
 243 305 305 305 305 163 163 163 163 163 139 139 139 139 139 196 196 196 178 178
 178 178 178 178 178 178 238 238 243 243 243 243 305 305 305 79 163 163 163 195
 139 139 139 139 139 139 196 196 341 178 178 178 178 178 178 238 219 219 243 243
 243 243 243 79 79 79 79 390 195 195 195 139 139 139 139 139 196 341 341 341
 341 341 178 178 295 295 219 219 173 243 243 243 243 79 79 79 79 195 195 195
 195 139 139 139 139 319 319 341 341 341 341 341 341 295 295 295 219 219 173 173
 173 243 243 392 79 79 79 195 195 195 195 139 139 139 319 319 319 341 341 341
 341 341 341 295 295 295 219 219 173 173 173 173 392 392 392 392 310 195 195 195
 293 293 293 293 319 319 319 341 341 341 341 341 341 116 116 219 219 219 173 173
 173 173 173 392 392 236 236 236 293 293 299 299 299 299 319 319 319 341 341 341
 341 341 242 116 116 116 411 411 173 173 173 357 357 392 236 236 236 236 236 299
 299 299 299 299 299 319 319 341 341 242 242 242 242 116 116 116 209 209 209 209
 357 357 357 236 236 236 236 236 236 299 299 299 299 299 381 381 381 381 242 242
 242 242 242 116 116 209 209 209 209 357 357 357 357 236 236 236 236 236 236 299
 299 299 299 299 381 381 381 381 242 242 242 242 185 185 185 209 209 209 209 357
 357 357 357 357 236 236 236 236 236 299 299 299 299 299 64 64 381 381 361 361
 361 185 185 185 185 209 209 209 209 357 357 357 357 357 236 236 236 236 236 128
 128 128 299 64 64 64 64 64 361 361 361 361 185 185 185 185 209 209 209 357
 357 357 357 357 236 236 236 202 202 128 128 360 360 360 64 64 64 64 361 361
 361 361 361 185 185 185 209 209 5 5 357 86 86 86 86 202 202 202 202 128
 360 360 360 360 360 360 17 56 56 361 361 361 361 347 347 347 5 5 5 5
 5 86 86 86 86 351 202 202 202 202 360 360 360 360 360 360 17 56 56 56
 361 361 347 347 347 347 5 5 5 5 5 5 86 86 86 351 351 202 385 385
 385 360 360 360 360 360 17 56 56 56 56 347 347 347 347 347 5 5 5 5
 5 5 86 194 194 351 234 385 385 385 385 360 360 360 346 346 17 171 171 171
 171 372 347 347 366 366 366 5 5 5 5 5 32 32 32 234 234 234 234 385
 385 346 346 346 346 346 346 171 171 171 171 372 366 366 366 366 366 345 345 5
 393 393 32 32 32 234 234 234 234 234 385 346 346 346 346 346 346 346 372 372
 372 372 372 366 366 366 366 345 345 345 393 393 32 32 234 234 234 234 234 234
 346 346 346 346 346 346 346 175 149 149 372 372 372 372 366 366 345 345 345 345
 132 153 153 32 234 234 234 234 234 234 346 346 346 346 346 346 346 175 149 149
 149 372 372 372 143 143 189 345 345 132 153 153 153 153 234 234 234 234 234 234
 85 85 346 346 346 346 346 175 149 149 149 372 372 372 143 143 143 189 132 132
 153 153 153 153 124 59 234 234 234 234 85 85 346 346 346 346 331 331 227 227
 372 372 372 143 143 143 143 143 16 16 16 124 124 124 124 124 183 183 183 85
 85 85 376 376 331 331 331 331 331 227 105 105 143 143 143 143 143 143 16 16
 124 124 124 124 124 124 124 183 183 85 91 376 376 376 331 331 331 331 331 105
 105 105 105 189 189 143 143 143 337 16 124 124 124 124 124 124 124 183 91 91
 91 91 376 249 249 249 331 331 359 359 359 105 178 178 189 143 328 328 337 337
 124 124 124 124 124 124 124 91 91 91 91 91 91 249 249 249 249 359 359 359
 359 178 178 178 178 178 328 156 328 261 296 296 124 124 124 124 124 91 91 91
 91 91 91 332 332 332 332 359 359 359 359 178 178 178 178 178 156 156 156 261
 296 296 305 305 305 163 163 163 91 91 91 91 139 139 332 332 332 359 359 359
 359 178 178 178 178 238 156 156 156 217 217 217 305 305 305 163 163 163 163 91
 139 139 139 139 196 332 332 359 359 359 178 178 178 178 238 238 238 156 156 217
 217 217 217 305 305 163 163 163 163 163 139 139 139 139 196 196 196 359 359 359
 178 178 178 238 238 238 238 238 238 217 217 217 217 305 163 163 163 163 163 195
 195 139 139 139 139 196 196 359 359 359 178 178 178 238 238 238 238 238 55 243
 243 243 217 112 112 79 163 195 195 195 195 139 139 139 139 139 196 341 341 341
 341 341 178 238 219 219 219 219 219 55 243 243 243 112 112 79 195 195 195 195
 195 293 139 139 319 319 319 341 341 341 341 341 341 219 219 219 219 219 219 173
 173 243 243 112 112 112 195 195 195 195 293 293 293 319 319 319 319 341 341 341
 341 341 341 219 219 219 219 219 173 173 173 173 112 112 112 112 195 195 195 195
 293 293 293 293 319 319 319 341 341 341 341 240 240 116 411 411 219 219 97 97
 97 97 97 250 250 250 250 293 293 293 299 299 299 299 319 319 319 341 341 341
 341 240 240 116 411 411 411 411 97 97 97 97 97 89 89 89 89 236 222 293
 299 299 299 299 349 349 349 349 341 242 242 242 242 116 116 411 411 209 209 97
 97 357 357 89 89 89 89 236 236 299 299 299 299 299 349 349 349 349 242 242
 242 242 242 116 116 209 209 209 209 209 357 357 357 357 89 89 89 236 236 299
 299 299 299 299 349 349 349 349 242 242 242 242 185 185 232 232 209 209 209 209
 357 357 357 357 89 89 89 236 236 299 299 299 299 64 64 64 64 64 361 361
 361 361 361 185 232 232 209 209 209 357 357 357 357 357 236 236 236 386 386 386
 301 301 301 64 64 64 64 64 64 361 361 361 361 185 232 232 232 209 209 357
 357 357 357 357 236 236 236 386 386 386 301 301 301 360 64 64 64 64 361 361
 361 361 361 347 347 347 232 209 5 5 357 86 86 86 86 86 202 386 386 386
 301 301 360 360 360 360 64 64 361 361 361 361 347 347 347 347 347 5 5 5
 5 86 86 86 86 351 351 202 202 385 385 360 360 360 360 360 360 56 56 361
 361 361 347 347 347 347 347 5 5 5 5 5 86 86 351 351 351 351 385 385
 385 360 360 360 360 360 360 171 171 171 171 347 347 347 347 347 347 5 5 5
 5 5 32 32 351 351 351 385 385 385 385 385 360 346 346 346 171 171 171 171
 171 171 347 347 366 366 366 5 5 5 5 32 32 32 32 32 234 385 385 385
 385 346 346 346 346 346 346 171 171 171 171 171 366 366 366 366 366 345 345 345
 32 32 32 32 32 234 234 234 385 385 385 346 346 346 346 346 346 175 175 171
 171 366 366 366 366 366 366 345 345 345 345 32 32 32 32 234 234 234 234 385
 346 346 346 346 346 346 346 175 175 175 175 372 366 366 366 366 345 345 345 345
 153 153 153 32 32 234 234 234 234 234 346 346 346 346 346 346 346 175 175 175
 149 372 372 366 143 143 143 345 345 345 153 153 153 153 153 59 234 234 234 234
 85 85 85 346 346 346 346 175 175 175 227 372 372 143 143 143 143 143 16 16
 153 153 153 153 59 59 59 234 183 85 85 85 85 346 346 346 283 227 227 227
 227 227 143 143 143 143 143 143 16 16 16 153 124 124 59 59 59 183 183 85
 85 85 85 283 283 283 283 283 227 227 227 227 143 143 143 143 143 143 16 16
 16 124 124 124 124 59 183 183 183 85 85 85 85 283 283 283 283 283 227 227
 227 227 143 143 143 143 143 143 16 16 124 124 124 124 124 161 161 183 183 91
 91 91 283 283 283 283 283 283 359 359 359 359 143 143 143 143 143 143 261 261
 296 296 124 124 161 161 161 161 91 91 91 91 218 218 218 249 249 359 359 359
 359 359 178 178 178 82 156 156 261 261 296 296 296 124 161 161 161 163 91 91
 91 91 218 218 218 218 359 359 359 359 359 359 178 178 178 156 156 156 156 261
 296 296 296 161 161 161 163 163 163 91 91 139 139 139 332 332 332 359 359 359
 359 359 178 178 238 238 156 156 156 217 217 217 217 217 161 163 163 163 163 163
 139 139 139 139 139 196 359 359 359 359 359 359 178 238 238 238 238 156 156 217
 217 217 217 217 217 163 163 163 163 163 195 229 139 139 139 196 196 359 359 359
 359 359 178 238 238 238 238 238 238 217 217 217 217 217 217 163 163 163 163 195
 195 139 139 139 139 24 24 359 359 359 359 359 178 238 238 238 238 238 55 55
 217 217 217 112 112 163 163 195 195 195 195 195 139 139 24 24 24 341 341 341
 341 341 240 238 238 238 219 219 55 55 55 217 112 112 112 112 195 195 195 195
 195 293 293 139 319 319 319 341 341 341 341 240 240 240 219 219 219 219 55 55
 55 243 112 112 112 112 195 195 195 195 293 293 293 293 319 319 319 341 341 341
 341 240 240 240 219 219 219 219 173 55 173 173 112 112 112 112 195 195 195 195
 293 293 293 233 319 319 319 341 341 341 240 240 240 411 411 411 411 158 97 97
 97 97 8 250 250 250 250 222 222 222 222 233 233 233 349 319 349 341 341 341
 341 240 240 411 411 411 411 411 97 97 97 97 8 89 89 89 89 222 222 222
 299 299 299 299 349 349 349 349 341 157 157 157 157 411 411 411 411 411 97 97
 97 97 8 89 89 89 89 89 222 222 299 299 299 259 349 349 349 259 259 157
 157 157 157 411 411 411 209 209 209 209 357 357 357 89 89 89 89 386 386 386
 299 299 299 259 259 349 259 259 259 157 157 157 157 157 232 232 232 209 209 209
 357 357 357 89 89 89 89 386 386 386 386 299 299 259 259 64 259 259 259 157
 157 157 157 232 232 232 232 209 209 357 357 357 357 154 154 154 386 386 386 386
 301 301 301 259 64 64 64 259 259 361 361 155 155 155 232 232 232 209 209 357
 357 357 357 154 154 154 154 386 386 386 301 301 301 259 259 64 259 259 259 361
 361 155 155 347 347 232 232 209 5 5 5 86 86 86 154 154 154 386 386 386
 301 301 301 360 360 360 259 259 361 361 361 155 347 347 347 347 347 5 5 5
 5 86 86 86 351 351 351 351 386 386 385 360 360 360 360 360 360 171 171 361
 361 347 347 347 347 347 347 5 5 5 5 5 86 351 351 351 351 351 385 385
 385 385 360 360 360 360 171 171 171 171 171 347 347 347 347 347 347 5 5 5
 5 32 32 32 351 351 351 385 385 385 385 385 360 346 346 346 368 171 171 171
 171 171 366 366 366 366 366 5 5 5 5 32 32 32 32 32 50 385 385 385
 385 385 346 346 346 346 368 171 171 171 171 171 366 366 366 366 366 345 345 345
 32 32 32 32 32 32 50 50 385 385 385 346 346 346 346 346 368 175 175 171
 171 366 366 366 366 366 366 345 345 345 345 32 32 32 32 50 50 50 50 385
 385 346 346 346 346 346 346 175 175 175 175 366 366 366 366 366 345 345 345 345
 153 153 153 32 32 50 50 50 50 50 346 346 346 346 346 346 346 175 175 175
 175 366 366 366 143 143 143 345 345 345 153 153 153 153 32 50 50 50 50 50
 85 85 85 346 346 346 175 175 175 227 227 227 143 143 143 143 143 143 16 16
 153 153 153 153 59 59 59 290 290 85 85 85 85 85 346 283 283 227 227 227
 227 227 143 143 143 143 143 143 16 16 16 153 153 124 59 59 59 183 183 85
 85 85 85 283 283 283 283 283 227 227 227 227 143 143 143 143 143 143 16 16
 16 124 124 124 161 59 183 183 183 85 85 85 85 283 283 283 283 283 227 227
 227 227 143 143 143 143 143 143 16 16 16 124 124 161 161 161 161 183 183 183
 85 85 283 283 283 283 283 283 359 359 359 359 359 143 143 143 82 82 82 261
 296 296 296 161 161 161 161 161 183 183 91 91 218 218 218 218 218 359 359 359
 359 359 359 405 82 82 82 82 261 261 296 296 296 161 161 161 161 163 163 91
 91 91 218 218 218 218 359 359 359 359 359 359 359 359 82 82 156 156 156 261
 296 296 296 161 161 161 239 163 163 163 229 229 218 218 218 218 359 359 359 359
 359 359 359 238 238 238 156 156 156 156 217 217 217 217 239 239 239 163 163 163
 229 229 229 139 139 324 359 359 359 359 359 359 359 238 238 238 238 156 156 217
 217 217 217 217 239 239 163 163 163 163 229 229 229 139 139 24 359 359 359 359
 359 359 238 238 238 238 238 238 238 217 217 217 217 217 239 163 163 163 163 195
 229 229 229 139 24 24 24 359 359 359 359 359 238 238 238 238 238 238 55 55
 217 217 217 112 112 112 163 195 195 195 195 233 233 139 24 24 24 24 341 341
 341 240 238 238 238 238 238 219 55 55 55 217 112 112 112 250 195 195 195 195
 195 293 293 233 24 24 24 24 341 341 240 240 240 238 219 219 219 158 55 55
 55 217 112 112 112 250 250 195 195 195 293 293 293 233 319 319 319 341 341 341
 240 240 240 240 219 219 219 158 158 55 55 217 112 112 112 250 250 195 195 195
 233 233 233 233 233 319 319 103 103 103 103 240 240 411 411 411 158 158 158 97
 8 8 8 250 250 250 250 222 222 222 222 233 233 233 233 349 349 103 103 103
 103 240 240 411 411 411 411 158 97 97 8 8 8 8 250 250 250 222 222 222
 222 233 299 233 349 349 349 349 103 157 157 157 157 411 411 411 411 158 97 97
 8 8 8 8 89 89 89 222 222 222 299 299 259 259 259 349 259 259 259 157
 157 157 157 270 270 270 270 270 209 8 8 8 8 8 89 89 89 386 386 386
 386 299 259 259 259 259 259 259 259 157 157 157 157 270 232 232 232 209 209 8
 8 8 8 8 89 89 386 386 386 386 386 386 259 259 259 259 259 259 259 157
 157 157 157 157 232 232 232 209 209 74 357 8 8 154 154 154 386 386 386 386
 386 301 301 259 259 259 259 259 259 157 157 155 21 21 232 232 232 232 209 74
 357 8 154 154 154 154 154 386 386 386 301 301 301 259 259 259 259 259 259 361
 155 155 21 21 347 232 232 281 281 5 5 86 86 154 154 154 154 386 386 386
 301 301 301 259 259 259 259 259 259 361 361 155 347 347 347 347 347 281 5 5
 5 86 86 154 154 154 154 386 386 386 385 301 360 360 360 259 259 171 171 171
 361 347 347 347 347 347 347 5 5 5 5 5 86 351 351 351 351 351 385 385
 385 385 360 360 360 368 171 171 171 171 171 171 347 347 347 347 347 5 5 5
 5 32 32 32 32 351 351 385 385 385 385 385 385 346 346 368 368 171 171 171
 171 171 366 366 366 366 366 345 345 345 32 32 32 32 32 32 50 50 385 385
 385 385 346 346 346 368 368 368 171 171 171 171 366 366 366 366 366 345 345 345
 32 32 32 32 32 50 50 50 385 385 385 346 346 346 346 368 368 368 171 171
 171 366 366 366 366 366 366 345 345 345 345 32 32 32 32 50 50 50 50 385
 385 346 346 346 346 298 298 175 175 175 175 366 366 366 366 366 345 345 345 345
 153 153 32 32 32 50 50 50 50 50 85 346 346 346 298 298 298 175 175 175
 175 366 366 366 366 143 143 345 345 345 153 153 153 153 32 50 50 50 50 50
 85 85 85 346 298 298 298 175 175 227 227 227 366 143 143 143 143 143 16 16
 153 153 153 153 59 59 290 290 290 290 85 85 85 85 283 283 283 227 227 227
 227 227 143 143 143 143 143 143 16 16 16 153 153 124 59 59 290 290 290 290
 85 85 85 283 283 283 283 283 227 227 227 227 143 143 143 143 143 143 16 16
 16 124 124 161 161 161 290 290 290 290 85 85 85 283 283 283 283 283 227 227
 227 95 143 143 143 143 143 82 82 82 16 124 124 161 161 161 161 183 183 183
 85 90 90 90 283 283 283 283 359 359 359 359 405 405 405 82 82 82 82 82
 296 296 296 161 161 161 161 161 161 161 90 90 90 90 90 218 218 359 359 359
 359 359 405 405 405 82 82 82 82 261 296 296 296 161 161 161 161 161 163 163
 91 90 90 90 218 324 324 359 359 359 359 359 359 405 82 82 82 82 82 82
 296 296 296 161 161 239 239 239 163 163 229 229 90 324 324 324 324 359 359 359
 359 359 51 51 238 238 156 156 156 156 217 217 217 217 239 239 239 239 163 163
 229 229 229 324 324 324 324 359 359 359 359 359 51 51 238 238 238 156 156 217
 217 217 217 217 239 239 239 239 163 163 229 229 229 139 324 324 324 359 359 359
 359 359 238 238 238 238 238 238 238 217 217 217 217 217 239 239 239 239 163 195
 229 229 229 139 24 24 24 359 359 359 359 359 238 238 238 238 238 238 55 55
 217 217 217 112 112 119 119 119 119 195 233 233 233 233 24 24 24 103 103 103
 103 103 240 238 238 238 238 158 55 55 55 217 217 112 112 250 119 119 119 195
 233 233 233 233 24 24 24 103 103 103 103 240 240 240 238 158 158 158 158 55
 55 217 112 112 250 250 119 119 119 233 233 233 233 233 233 319 103 103 103 103
 240 240 240 240 158 158 158 158 158 158 55 8 250 250 250 250 250 119 233 233
 233 233 233 233 233 233 103 103 103 103 103 103 103 358 358 158 158 158 158 158
 8 8 8 250 250 250 250 250 222 222 222 233 233 233 233 259 103 103 103 103
 103 103 103 270 270 270 158 158 158 8 8 8 8 8 250 250 250 222 222 222
 222 233 233 259 259 259 259 259 103 157 157 157 157 270 270 270 270 270 97 8
 8 8 8 8 8 89 89 222 222 222 222 233 259 259 259 259 259 259 259 157
 157 157 157 270 270 270 270 270 270 8 8 8 8 8 89 89 386 386 386 222
 386 386 259 259 259 259 259 259 259 157 157 157 157 270 270 270 270 270 74 74
 8 8 8 8 154 154 386 386 386 386 386 386 259 259 259 259 259 259 259 157
 157 157 157 270 270 270 270 281 74 74 74 8 8 154 154 154 31 31 386 386
 386 363 363 259 259 259 259 259 259 157 157 157 21 21 21 281 281 281 281 74
 74 8 8 154 154 154 154 386 386 386 301 363 363 363 259 259 259 259 259 361
 155 155 21 21 21 281 281 281 281 281 74 8 154 154 154 154 154 386 386 386
 301 363 363 363 259 259 259 259 269 269 361 155 347 21 21 347 281 281 281 281
 281 86 154 154 154 154 154 386 386 386 385 363 363 363 135 135 135 171 171 171
 171 347 347 347 347 347 281 281 281 281 165 165 165 154 351 351 351 58 385 385
 385 385 135 135 135 135 135 171 171 171 171 171 347 347 347 347 397 397 397 397
 165 165 165 32 32 351 351 385 385 385 385 385 135 135 135 135 368 171 171 171
 171 171 171 366 366 366 397 397 397 345 165 165 32 32 32 32 50 50 385 385
 385 385 346 135 135 368 368 368 171 171 171 171 366 366 366 366 366 345 345 345
 32 32 32 32 32 50 50 50 50 385 385 385 346 135 135 368 368 368 171 171
 171 171 366 366 366 366 366 345 345 345 32 32 32 32 32 50 50 50 50 50
 410 410 346 346 298 298 298 368 175 175 175 366 366 366 366 366 345 345 345 345
 153 153 32 32 50 50 50 50 50 50 410 410 346 346 298 298 298 298 175 412
 412 366 366 366 366 143 143 345 345 345 153 153 153 153 50 50 50 50 50 50
 85 85 85 298 298 298 298 298 412 412 412 412 366 143 143 143 143 143 345 345
 153 153 153 153 59 290 290 290 290 290 85 85 85 407 407 283 298 412 412 412
 412 412 207 207 207 143 143 143 16 16 16 153 304 304 59 290 290 290 290 290
 85 85 407 407 407 283 283 60 412 412 412 412 207 207 207 207 143 143 82 16
 16 304 304 161 161 205 290 290 290 290 407 407 407 407 407 283 60 60 60 95
 95 95 207 207 207 207 82 82 82 82 82 124 124 161 161 161 205 205 205 290
 407 407 90 90 90 283 60 60 60 359 95 95 405 405 405 82 82 82 82 82
 82 296 296 161 161 161 205 205 205 205 90 90 90 90 90 90 60 60 359 359
 359 95 405 405 405 82 82 82 82 82 82 296 296 161 161 161 161 205 205 84
 84 90 90 90 324 324 324 359 359 359 359 359 405 405 405 82 82 82 82 82
 82 296 296 161 161 239 239 239 239 84 84 90 90 324 324 324 324 359 359 359
 359 359 51 51 51 82 82 82 82 82 217 217 217 239 239 239 239 239 239 239
 229 229 324 324 324 324 324 359 359 359 359 359 51 51 238 238 238 238 156 217
 217 217 217 217 239 239 239 239 239 239 229 229 229 309 324 324 324 359 359 359
 359 359 51 238 238 238 238 238 238 217 217 217 217 217 239 239 239 119 119 119
 229 229 233 233 24 24 24 103 103 103 103 103 238 238 238 238 238 238 55 55
 217 217 217 112 112 119 119 119 119 119 233 233 233 233 24 24 24 103 103 103
 103 103 103 238 238 238 158 158 158 55 55 217 217 250 250 119 119 119 119 119
 233 233 233 233 233 24 103 103 103 103 103 103 103 358 358 158 158 158 158 158
 55 8 250 250 250 250 119 119 119 233 233 233 233 233 233 233 103 103 103 103
 103 103 103 358 358 158 158 158 158 158 8 8 8 250 250 250 250 119 233 233
 233 233 233 233 233 103 103 103 103 103 103 103 103 358 358 358 358 158 158 158
 8 8 8 8 250 250 250 250 222 222 222 233 233 233 233 248 103 103 103 103
 103 103 103 270 270 270 270 158 158 8 8 8 8 8 250 250 250 222 222 222
 222 228 228 259 259 248 248 103 103 103 103 157 270 270 270 270 270 270 67 8
 8 8 8 8 8 250 250 222 222 222 228 228 228 259 259 248 259 259 259 157
 157 157 157 270 270 270 270 270 67 67 8 8 8 8 8 154 4 386 386 228
 228 228 228 259 259 259 259 259 259 157 157 157 157 270 270 270 270 270 74 74
 8 8 8 8 154 154 4 386 386 386 228 228 363 259 259 259 259 259 259 122
 122 122 122 270 270 270 270 281 74 74 74 8 8 154 154 154 4 4 386 386
 386 363 363 363 259 259 259 259 259 122 122 122 122 21 270 281 281 281 281 74
 74 74 251 251 154 154 4 4 4 386 363 363 363 363 363 259 259 259 259 122
 122 122 21 21 21 281 281 281 281 281 74 251 251 251 154 154 154 4 4 386