# vtk DataFile Version 2.0
Data set from IO Version 6.4.197.9a0dee2
ASCII

DATASET RECTILINEAR_GRID
DIMENSIONS 31 31 31
X_COORDINATES 31 float
-5.850000 5.850000 17.549999 29.249998 40.950001 52.650002 64.349998 76.050003 87.750000 99.449997 111.150002 122.849998 134.549988 146.249985 157.949997 169.649994 181.349991 193.049988 204.749985 216.449997 228.149994 
239.849991 251.549988 263.250000 274.949982 286.649994 298.349976 310.049988 321.750000 333.449982 345.149994 
Y_COORDINATES 31 float
-5.850000 5.850000 17.549999 29.249998 40.950001 52.650002 64.349998 76.050003 87.750000 99.449997 111.150002 122.849998 134.549988 146.249985 157.949997 169.649994 181.349991 193.049988 204.749985 216.449997 228.149994 
239.849991 251.549988 263.250000 274.949982 286.649994 298.349976 310.049988 321.750000 333.449982 345.149994 
Z_COORDINATES 31 float
-5.850000 5.850000 17.549999 29.249998 40.950001 52.650002 64.349998 76.050003 87.750000 99.449997 111.150002 122.849998 134.549988 146.249985 157.949997 169.649994 181.349991 193.049988 204.749985 216.449997 228.149994 
239.849991 251.549988 263.250000 274.949982 286.649994 298.349976 310.049988 321.750000 333.449982 345.149994 
CELL_DATA 27000
SCALARS FeatureIds int 1
LOOKUP_TABLE default
 91 91 91 91 278 278 278 374 31 31 31 140 140 140 191 191 191 191 191 284
 284 284 284 328 328 358 358 358 358 358 91 311 91 91 278 278 278 374 374 374
 374 140 140 140 140 191 191 191 191 284 284 284 284 284 284 358 358 358 358 358
 311 311 311 311 103 103 103 374 374 374 374 140 140 140 78 78 78 78 78 78
 284 284 284 284 284 358 358 358 358 358 311 311 311 311 103 103 103 374 374 374
 374 140 140 140 78 78 78 247 247 197 197 197 197 284 284 280 280 358 358 311
 311 311 311 311 103 103 103 103 374 374 124 11 11 11 78 78 247 247 247 197
 197 197 197 197 83 280 280 280 280 280 320 320 320 320 384 384 384 124 124 124
 124 124 11 11 11 78 247 247 316 316 197 197 197 83 83 83 280 280 280 280
 320 320 320 320 384 384 384 124 124 124 124 124 195 195 195 195 247 316 316 316
 316 197 83 83 83 83 280 280 280 280 320 320 248 248 111 111 297 297 124 124
 124 124 195 195 195 195 195 169 316 316 316 83 83 83 83 83 83 280 280 280
 248 248 248 248 111 111 111 124 124 124 124 124 195 195 195 195 169 169 169 316
 316 83 83 83 83 83 83 218 218 218 248 248 248 248 111 111 111 111 124 124
 124 124 195 195 195 195 169 169 169 169 83 83 83 83 83 83 218 218 218 218
 238 248 248 248 148 148 148 95 95 95 95 95 305 305 305 305 169 169 169 169
 83 83 83 83 83 83 83 218 218 218 238 238 238 148 148 148 148 95 95 95
 95 95 305 305 305 305 169 169 169 169 83 83 83 83 83 83 83 218 218 238
 238 238 238 238 148 148 148 95 95 95 95 95 305 305 305 305 169 169 119 119
 61 179 179 179 179 179 83 218 238 238 238 238 238 238 148 148 148 213 213 213
 213 213 305 305 305 305 163 119 119 119 119 179 179 179 179 179 151 151 238 238
 238 238 238 238 333 333 333 213 213 213 213 213 213 305 298 298 163 119 119 119
 119 119 179 179 179 179 151 151 151 238 238 238 238 238 333 333 333 213 213 213
 213 213 213 213 298 163 163 163 119 119 119 119 365 365 365 367 367 151 151 367
 367 238 238 176 176 176 333 213 213 213 213 213 213 298 163 163 163 163 163 119
 119 365 365 365 365 367 367 367 367 367 367 367 176 176 176 176 176 213 279 279
 279 213 213 114 114 114 163 163 163 163 119 365 365 365 365 367 367 367 367 367
 367 60 60 176 176 176 176 176 279 279 279 213 114 114 114 114 163 163 163 163
 275 365 365 365 365 367 367 367 367 367 165 60 60 165 176 176 176 176 279 279
 279 213 114 114 114 114 114 163 163 163 275 275 275 365 365 367 367 367 367 367
 165 165 165 165 165 176 176 176 156 156 183 183 220 220 114 114 130 130 130 130
 1 275 275 275 365 349 349 349 349 165 165 165 165 165 165 165 105 105 156 156
 183 183 220 220 220 130 130 130 130 130 1 1 275 275 349 349 349 349 349 165
 165 165 165 165 165 72 105 105 105 183 183 183 220 220 220 130 130 130 130 130
 1 1 275 366 349 349 349 349 349 165 165 165 165 165 72 72 105 105 105 105
 183 183 220 220 220 265 265 265 265 13 13 366 366 366 366 349 125 125 125 165
 165 165 72 72 72 72 72 105 105 105 105 183 372 372 265 265 265 265 265 13
 13 366 366 366 366 125 125 125 125 165 165 165 72 72 72 72 72 72 105 105
 105 105 372 372 372 265 265 265 265 13 13 366 366 366 366 125 125 125 125 165
 72 72 72 72 72 72 72 72 105 105 105 121 372 372 372 372 265 265 265 13
 13 13 366 366 328 328 129 129 129 129 91 91 72 72 72 72 72 72 31 31
 31 31 372 372 372 372 265 265 265 13 13 13 328 328 328 328 129 129 129 129
 91 91 91 72 72 339 339 31 31 31 31 31 31 191 191 191 191 191 265 13
 13 328 328 328 328 328 129 129 129 129 91 91 91 91 339 339 339 31 31 31
 31 31 140 140 191 191 191 191 265 13 328 328 328 328 328 328 129 129 129 129
 91 91 91 91 339 339 339 31 31 31 31 140 140 140 191 191 191 191 191 284
 284 284 284 284 284 284 358 358 358 358 311 311 311 311 103 103 103 31 31 31
 31 140 140 140 140 191 191 191 191 284 284 284 284 284 284 358 358 358 358 358
 311 311 311 311 103 103 103 103 374 374 374 140 140 140 140 78 78 78 78 284
 284 284 284 284 284 358 358 358 358 311 311 311 311 311 103 103 103 103 374 374
 374 140 140 140 140 78 78 247 247 197 197 197 197 284 284 280 280 280 280 311
 311 311 311 311 103 103 103 103 124 124 124 11 11 11 11 78 78 247 316 197
 197 197 197 83 280 280 280 280 280 280 320 320 320 320 384 384 384 124 124 124
 124 124 11 11 11 78 247 316 316 316 316 83 83 83 83 83 280 280 280 280
 320 320 320 320 384 384 384 297 124 124 124 124 11 11 11 195 316 316 316 316
 316 83 83 83 83 83 280 280 280 280 320 320 320 111 111 111 297 297 124 124
 124 124 195 195 195 195 169 169 316 316 316 83 83 83 83 83 83 280 280 280
 320 320 248 111 111 111 111 297 124 124 124 124 124 195 195 195 169 169 169 316
 316 83 83 83 83 83 83 218 218 218 248 248 248 111 111 111 111 111 124 124
 124 124 124 195 195 169 169 169 169 169 169 83 83 83 83 83 218 218 218 218
 106 106 248 111 111 111 111 111 95 95 95 95 305 305 305 169 169 169 169 169
 83 83 83 83 83 83 218 218 218 218 238 238 238 148 148 148 148 95 95 95
 95 95 305 305 305 305 169 169 169 169 61 61 61 83 83 83 218 218 218 218
 238 238 238 238 148 148 148 95 95 95 95 95 305 305 305 305 169 169 169 61
 61 61 61 61 179 83 218 218 238 238 238 238 238 238 176 148 213 213 213 213
 213 213 213 305 298 298 298 298 119 119 61 61 61 61 179 179 151 151 238 238
 238 238 238 176 176 176 213 213 213 213 213 213 213 298 298 298 298 298 119 119
 119 38 179 179 179 179 151 151 151 238 238 238 238 176 176 176 176 213 213 213
 213 213 213 298 298 298 298 163 119 119 38 38 365 365 365 367 367 367 367 367
 367 238 176 176 176 176 176 213 213 213 213 213 213 298 298 298 163 163 163 38
 38 38 365 365 365 367 367 367 367 367 367 367 176 176 176 176 176 213 213 213
 213 213 213 34 34 114 163 163 163 163 38 365 365 365 365 367 367 367 367 367
 60 60 60 176 176 176 176 176 213 213 213 213 213 114 114 114 163 163 163 163
 275 275 275 365 365 367 367 367 367 367 60 60 60 176 176 176 176 176 213 213
 213 220 220 114 114 114 130 130 130 130 275 275 275 275 365 367 349 349 349 367
 165 60 60 165 176 176 176 176 156 156 156 220 220 220 220 130 130 130 130 130
 275 275 275 275 275 349 349 349 349 349 165 165 165 165 165 176 105 105 156 156
 156 220 220 220 220 130 130 130 130 130 275 275 275 275 275 349 349 349 349 349
 165 165 165 165 165 105 105 105 105 156 156 220 220 220 220 130 130 130 130 130
 366 366 275 275 349 349 349 349 349 349 165 165 165 165 72 105 105 105 105 105
 105 105 220 220 220 265 265 265 265 265 366 366 366 366 366 349 349 349 349 349
 165 165 72 72 72 72 105 105 105 105 105 105 105 372 265 265 265 265 265 265
 366 366 366 366 366 125 125 125 125 165 165 72 72 72 72 72 72 105 105 105
 105 105 372 372 372 265 265 265 265 265 366 366 366 366 366 194 125 125 125 165
 72 72 72 72 72 72 72 105 105 105 105 121 121 372 372 265 265 265 265 265
 366 366 366 366 194 194 194 129 129 129 91 91 72 72 339 339 339 339 31 31
 31 121 121 191 191 191 265 265 265 265 13 366 328 328 194 194 194 129 129 129
 91 91 91 339 339 339 339 339 31 31 31 31 31 191 191 191 191 191 265 265
 13 328 328 328 328 328 129 129 129 129 91 91 91 91 339 339 339 31 31 31
 31 31 140 140 191 191 191 191 265 265 284 284 284 328 328 328 129 129 129 129
 91 91 91 339 339 339 339 339 31 31 31 140 140 140 191 191 191 191 191 219
 284 284 284 284 284 198 198 198 358 358 311 311 311 311 339 103 339 339 31 31
 31 140 140 140 140 191 191 191 191 284 284 284 284 284 198 198 198 198 358 358
 311 311 311 311 103 103 103 103 31 31 140 140 140 140 140 140 78 254 254 254
 284 284 284 284 198 198 198 198 358 311 311 311 311 311 103 103 103 103 374 374
 140 140 140 140 140 140 78 254 254 254 284 284 284 284 198 198 280 280 280 311
 311 311 311 311 103 103 103 103 124 124 124 124 11 133 133 78 78 254 316 316
 316 316 83 83 83 280 280 280 280 280 320 320 320 320 384 384 384 124 124 124
 124 124 11 133 133 133 329 316 316 316 316 316 83 83 83 83 280 280 280 280
 320 320 320 320 384 384 297 124 124 124 124 124 11 133 133 133 329 316 316 316
 316 83 83 83 83 83 280 280 280 280 320 320 320 111 111 111 297 297 124 124
 124 124 124 195 195 329 169 169 316 316 316 83 83 83 83 83 83 280 280 280
 320 320 111 111 111 111 111 124 124 124 124 124 124 195 195 169 169 169 169 316
 316 83 83 83 83 83 83 218 218 218 106 106 248 111 111 111 111 111 124 124
 124 124 124 195 195 169 169 169 169 169 83 83 83 83 83 83 83 218 218 218
 106 106 106 111 111 111 111 111 95 95 95 124 124 305 305 169 169 169 169 169
 83 83 83 83 83 83 83 218 218 218 106 106 106 106 111 111 111 111 95 95
 95 95 305 305 305 305 169 169 169 169 61 61 61 83 83 83 83 218 218 106
 106 106 106 106 148 148 148 213 213 213 213 213 305 305 298 298 298 169 169 61
 61 61 61 61 83 83 83 218 376 376 238 238 238 176 176 176 213 213 213 213
 213 213 213 298 298 298 298 298 298 61 61 61 61 61 61 83 93 93 93 93
 93 238 238 176 176 176 176 213 213 213 213 213 213 298 298 298 298 298 38 38
 38 38 38 61 61 179 93 93 93 93 93 93 176 176 176 176 176 213 213 213
 213 213 213 298 298 298 298 298 38 38 38 38 38 281 281 367 367 367 93 93
 93 176 176 176 176 176 176 213 213 213 213 213 34 34 34 298 298 298 38 38
 38 38 38 281 281 367 367 367 367 367 367 176 176 176 176 176 176 176 213 213
 213 213 34 34 34 34 298 163 38 38 38 38 38 281 281 367 367 367 367 367
 60 60 176 176 176 176 176 176 213 213 213 213 34 34 34 34 163 163 38 38
 38 38 275 275 365 367 367 367 367 367 60 60 60 176 176 176 176 176 44 44
 44 44 220 34 114 130 130 130 130 130 275 275 275 275 275 349 349 349 349 349
 60 60 60 176 176 176 176 176 44 156 44 220 220 220 220 130 130 130 130 130
 275 275 275 275 275 349 349 349 349 349 165 165 165 165 176 105 105 105 105 156
 156 220 220 220 220 130 130 130 130 130 275 275 275 275 275 349 349 349 349 349
 165 165 165 165 105 105 105 105 105 105 105 220 220 220 220 130 130 130 130 130
 366 366 366 366 349 349 349 349 349 349 165 165 165 165 105 105 105 105 105 105
 105 105 220 220 220 265 265 265 265 265 366 366 366 366 366 349 349 349 349 349
 165 165 72 72 72 105 105 105 105 105 105 105 105 220 265 265 265 265 265 265
 366 366 366 366 366 349 349 349 349 349 165 72 72 72 72 72 105 105 105 105
 105 105 121 121 265 265 265 265 265 265 366 366 366 366 366 194 194 88 88 88
 72 72 72 339 339 339 339 105 105 105 121 121 121 121 372 265 265 265 265 265
 366 366 366 366 194 194 194 194 88 88 91 91 339 339 339 339 339 339 339 31
 121 121 121 121 191 191 265 265 265 265 366 366 366 194 194 194 194 194 129 129
 91 91 91 339 339 339 339 339 31 31 31 121 121 191 191 191 191 191 265 265
 219 284 328 194 194 194 194 194 129 129 91 91 91 339 339 339 339 339 31 31
 31 31 140 191 191 191 191 191 265 219 284 284 284 284 328 194 194 194 263 263
 91 35 35 35 339 339 339 339 31 31 31 140 140 140 191 191 191 191 219 219
 219 219 219 219 198 198 198 198 198 198 311 311 311 100 100 100 100 100 31 31
 31 140 140 140 140 191 191 254 254 219 219 219 219 198 198 198 198 198 198 198
 311 311 311 100 100 100 100 100 100 31 173 173 140 140 140 254 254 254 254 254
 219 219 284 198 198 198 198 198 198 311 311 311 311 100 100 100 100 100 100 193
 173 173 173 140 140 254 254 254 254 254 254 219 284 198 198 198 198 198 198 311
 311 311 311 100 100 100 100 100 193 193 193 173 133 133 133 254 254 254 254 254
 316 316 83 83 198 198 280 280 280 280 320 320 320 100 100 100 100 124 193 193
 124 124 133 133 133 133 329 329 329 316 316 316 83 83 83 83 280 280 280 280
 320 320 320 320 384 384 297 124 124 124 124 124 133 133 133 329 329 329 329 329
 316 83 83 83 83 83 83 280 280 203 320 320 320 111 111 111 297 124 124 124
 124 124 124 133 133 329 329 329 329 329 316 83 83 83 83 83 83 141 141 141
 106 106 111 111 111 111 111 124 124 124 124 124 58 58 195 329 329 329 329 329
 316 83 83 83 83 83 83 141 141 141 106 106 106 111 111 111 111 111 124 124
 124 58 58 58 58 169 169 169 169 169 83 83 83 83 83 83 83 141 218 106
 106 106 106 106 111 111 111 10 10 124 58 58 58 58 58 169 169 169 169 169
 83 83 83 83 83 83 83 218 218 106 106 106 106 106 111 111 10 10 10 86
 58 58 58 305 63 63 63 63 169 373 61 61 61 83 83 83 83 218 106 106
 106 106 106 106 111 148 10 10 213 86 213 213 213 298 298 63 63 63 373 373
 61 61 61 61 83 83 83 376 376 376 93 93 106 176 176 176 176 213 213 86
 213 213 213 298 298 298 298 298 298 38 61 61 61 61 61 83 93 93 93 93
 93 93 93 176 176 176 176 213 213 213 213 213 213 298 298 298 298 298 38 38
 38 38 38 38 281 281 93 93 93 93 93 93 176 176 176 176 176 176 213 213
 213 213 34 34 298 298 298 298 38 38 38 38 38 281 281 281 93 93 93 93
 93 93 176 176 176 176 176 176 213 213 213 213 34 34 34 298 298 298 38 38
 38 38 38 281 281 281 367 93 93 93 93 176 176 176 176 176 176 176 213 213
 44 44 34 34 34 34 298 298 38 38 38 38 38 281 281 281 367 367 367 93
 60 60 176 176 176 176 176 176 44 44 44 44 34 34 34 34 298 38 38 38
 38 38 281 281 281 281 367 367 367 367 60 60 285 285 176 176 176 176 44 44
 44 44 44 34 252 252 130 130 38 38 38 38 275 275 281 349 349 349 349 349
 60 60 285 285 285 176 176 44 44 44 44 44 220 220 252 252 130 130 130 166
 166 275 275 275 275 349 349 349 349 349 165 184 184 184 285 105 105 105 105 44
 44 44 220 220 220 130 130 130 130 166 166 275 275 275 275 349 349 349 349 349
 165 184 184 184 184 105 105 105 105 105 105 105 220 220 220 130 130 130 130 166
 166 366 366 237 237 349 349 349 349 349 165 184 184 184 184 105 105 105 105 105
 105 105 105 220 185 185 265 265 265 265 366 366 366 237 237 349 349 349 349 349
 165 184 184 182 182 182 105 105 105 105 105 105 105 265 265 265 265 265 265 265
 366 366 366 366 366 366 88 88 88 88 165 182 182 182 182 182 105 105 105 105
 105 105 121 121 265 265 265 265 265 265 366 366 366 366 366 194 88 88 88 88
 339 339 339 339 339 339 339 105 105 105 121 121 121 121 390 265 265 265 265 265
 366 366 354 354 194 194 194 88 88 88 91 339 339 339 339 339 339 339 339 31
 121 121 121 121 390 191 265 265 265 265 219 219 354 354 194 194 194 88 88 88
 91 91 35 339 339 339 339 339 339 31 121 121 121 121 191 191 191 191 265 219
 219 219 219 354 194 194 194 194 263 263 91 91 35 35 339 339 339 339 31 31
 31 121 121 121 191 191 191 191 219 219 219 219 219 219 198 198 198 198 263 263
 35 35 35 35 35 339 339 290 290 290 290 173 140 140 191 191 191 254 82 82
 219 219 219 219 198 198 198 198 198 198 35 35 35 35 100 100 100 100 290 290
 173 173 140 140 140 254 254 254 82 82 219 219 219 198 198 198 198 198 198 198
 311 311 100 100 100 100 100 100 100 173 173 173 173 140 140 254 254 254 254 82
 219 219 219 198 198 198 198 198 198 186 311 311 100 100 100 100 100 100 193 193
 173 173 173 43 43 254 254 254 254 254 254 219 198 198 198 198 198 198 198 186
 203 100 100 100 100 100 100 100 193 193 193 173 43 43 43 254 254 254 254 254
 254 219 128 128 198 198 198 198 203 203 203 320 100 100 53 53 53 100 193 193
 193 43 43 43 43 43 329 329 329 329 392 392 128 128 83 83 141 141 203 203
 203 203 100 100 53 53 53 124 193 193 193 43 43 43 43 329 329 329 329 329
 329 83 83 83 83 83 141 141 141 203 203 203 100 100 53 53 53 124 193 193
 124 43 43 43 43 329 329 329 329 329 329 83 83 83 83 83 141 141 141 203
 203 106 106 111 111 111 111 124 124 124 58 58 58 43 43 329 329 329 329 329
 329 83 83 83 83 83 141 141 141 141 106 106 106 111 111 111 111 10 10 124
 58 58 58 58 43 329 329 329 329 329 329 83 83 83 83 83 83 141 141 376
 106 106 106 106 111 111 10 10 10 10 58 58 58 58 63 63 63 63 329 329
 373 83 83 83 83 83 83 141 376 376 106 106 106 106 111 10 10 10 10 10
 58 58 58 63 63 63 63 63 63 373 373 61 61 83 83 83 83 376 376 376
 376 106 106 106 106 10 10 10 86 86 86 86 86 63 63 63 63 63 373 373
 373 61 61 61 83 76 76 376 376 376 93 93 106 176 176 176 86 86 86 86
 86 86 86 63 63 63 63 63 373 373 373 61 61 61 281 93 93 93 93 93
 93 93 93 176 176 176 176 86 86 86 86 86 298 298 298 298 298 298 373 373
 38 38 38 38 281 281 93 93 93 93 93 93 93 176 176 176 176 176 213 213
 213 213 34 34 298 298 298 298 38 38 38 38 38 281 281 281 281 93 93 93
 93 93 176 176 176 176 176 176 44 44 44 44 34 34 34 298 298 298 38 38
 38 38 281 281 281 281 319 319 93 93 93 93 187 176 176 176 176 176 44 44
 44 44 34 34 34 34 298 298 38 38 38 38 281 281 281 281 319 319 319 93
 93 93 176 176 176 176 176 176 44 44 44 44 44 34 34 252 252 38 38 38
 38 38 281 281 281 281 319 319 319 93 60 285 285 285 285 176 176 44 44 44
 44 44 44 34 252 252 252 252 38 38 38 38 281 281 281 281 319 319 319 93
 184 184 285 285 285 285 176 44 44 44 44 44 44 220 252 252 252 166 166 166
 166 166 275 281 281 281 349 349 349 349 184 184 184 184 184 184 105 44 44 44
 44 44 44 220 220 185 130 166 166 166 166 166 275 237 237 349 349 349 349 349
 184 184 184 184 184 184 105 105 105 105 44 44 44 185 185 185 185 166 166 166
 166 166 237 237 237 237 349 349 349 349 184 184 184 184 184 182 105 105 105 105
 225 225 225 185 185 185 185 185 166 166 166 366 237 237 237 237 88 88 88 88
 184 184 184 182 182 182 182 105 105 225 225 225 225 185 185 185 185 265 265 265
 366 366 237 237 237 237 88 88 88 88 182 182 182 182 182 182 182 105 225 225
 225 225 390 390 390 265 265 265 265 265 366 366 354 354 354 354 88 88 88 88
 192 192 192 192 182 182 182 225 225 225 225 121 390 390 390 390 5 5 5 265
 219 354 354 354 354 194 88 88 88 88 339 339 339 339 339 339 339 339 339 225
 121 121 121 390 390 390 5 5 5 219 219 219 354 354 354 194 194 88 88 88
 35 35 35 35 339 339 339 290 290 290 121 121 121 390 390 191 5 5 5 219
 219 219 219 354 354 194 194 263 263 263 35 35 35 35 35 339 339 290 290 290
 121 121 121 390 390 191 191 5 5 219 219 219 219 219 198 198 198 263 263 263
 35 35 35 35 35 100 290 290 290 290 290 173 173 140 191 254 254 82 82 82
 219 219 219 219 198 198 198 263 263 263 186 35 35 35 100 100 100 290 290 290
 173 173 173 173 254 254 254 254 82 82 82 219 219 198 198 198 198 198 198 198
 186 100 100 100 100 100 100 100 100 100 173 173 173 173 254 254 254 254 254 82
 82 219 219 198 198 198 198 198 198 186 203 100 100 100 100 100 100 100 100 193
 173 173 173 43 43 254 254 254 254 254 392 219 128 128 198 198 198 198 186 186
 203 203 100 100 100 100 100 100 193 193 193 173 43 43 43 254 254 254 254 392
 392 392 128 128 128 198 16 16 16 203 203 203 100 100 53 53 53 100 193 193
 193 43 43 43 43 43 329 329 392 392 392 392 128 128 274 274 16 16 203 203
 203 203 203 100 53 53 53 100 193 193 193 43 43 43 43 329 329 329 329 392
 392 392 128 274 274 274 141 141 203 203 203 203 203 171 171 171 171 193 193 193
 193 58 43 43 43 329 329 329 329 329 392 392 68 274 274 274 141 141 141 203
 7 7 7 171 171 171 171 10 193 193 58 58 58 43 43 329 329 329 329 329
 329 68 68 68 274 274 141 141 141 141 7 7 7 7 171 171 10 10 10 10
 58 58 58 58 43 329 329 329 329 329 329 68 68 68 274 274 274 141 376 376
 376 7 7 7 171 10 10 10 10 10 58 58 58 58 63 63 63 63 63 63
 68 68 68 68 68 68 274 376 376 376 376 7 7 7 7 10 10 10 10 10
 86 58 58 63 63 63 63 63 63 63 373 234 68 68 68 76 76 376 376 376
 376 376 7 7 10 10 10 10 10 86 86 86 86 63 63 63 63 63 373 373
 373 373 234 234 76 76 76 376 376 376 93 93 93 176 176 176 18 86 86 86
 86 86 310 63 63 63 63 63 373 373 373 373 234 234 76 76 76 93 93 93
 93 93 93 176 176 176 18 18 86 86 86 86 310 310 63 63 63 63 373 373
 373 38 38 281 281 281 76 93 93 93 93 93 187 176 176 176 18 18 86 86
 86 86 310 310 298 298 298 298 38 38 38 38 38 281 281 281 281 93 93 93
 93 93 187 187 176 176 176 176 44 44 44 44 310 34 34 298 298 298 38 38
 38 38 281 281 281 281 319 319 93 93 93 187 187 187 187 176 176 176 44 44
 44 44 44 34 34 34 298 38 38 38 38 38 281 281 281 281 319 319 319 93
 93 187 187 187 176 176 176 44 44 44 44 44 44 34 252 252 252 252 38 38
 38 281 281 281 281 281 319 319 319 93 93 285 285 285 285 378 378 44 44 44
 44 44 44 44 252 252 252 166 166 166 38 101 281 281 281 281 319 319 319 307
 184 184 184 285 285 285 378 44 44 44 44 44 44 44 252 252 252 166 166 166
 166 101 101 281 281 244 244 307 307 307 184 184 184 184 184 184 44 44 44 44
 44 44 44 44 185 185 185 166 166 166 166 166 166 237 237 244 244 307 307 307
 184 184 184 184 184 184 105 105 44 44 44 44 360 185 185 185 185 166 166 166
 166 166 237 237 237 237 88 307 307 307 307 184 184 184 182 182 182 105 105 225
 225 225 225 185 185 185 185 185 166 166 166 327 237 237 237 237 88 88 88 88
 307 184 184 182 182 182 182 225 225 225 225 225 225 185 185 185 185 185 265 327
 327 327 237 237 237 237 88 88 88 88 192 192 192 192 182 182 182 225 225 225
 225 225 390 390 390 185 185 265 265 327 327 327 354 354 354 354 88 88 88 88
 192 192 192 192 182 182 182 225 225 225 225 225 390 390 390 390 5 5 5 219
 219 354 354 354 354 354 88 88 88 88 192 192 192 192 182 182 339 290 225 225
 225 390 390 390 390 390 5 5 5 219 219 219 354 354 354 354 88 88 88 88
 35 35 35 35 35 339 290 290 290 290 121 390 390 390 390 390 5 5 5 219
 219 219 219 354 354 354 263 263 263 263 35 35 35 35 35 339 290 290 290 290
 290 390 390 390 390 390 5 5 5 219 219 219 219 219 198 198 263 263 263 263
 35 35 35 35 35 100 290 290 290 290 290 173 173 136 136 254 254 254 82 82
 219 219 219 198 198 198 198 198 263 263 186 35 35 35 100 100 100 290 290 290
 173 173 173 136 254 254 254 254 82 82 82 219 219 198 198 198 198 198 198 186
 186 186 100 100 100 100 100 100 100 100 173 173 173 173 254 254 254 254 254 82
 82 219 128 198 198 198 198 198 186 186 186 186 100 100 100 100 100 100 100 193
 173 173 173 43 43 254 254 254 254 254 392 392 128 128 128 198 198 16 186 186
 186 276 276 100 100 100 100 100 193 193 193 173 43 43 43 254 254 254 392 392
 392 392 128 128 128 16 16 16 16 186 203 276 276 276 53 53 53 100 193 193
 193 43 43 43 43 43 254 392 392 392 392 392 128 128 274 274 16 16 16 203
 203 203 276 276 53 53 53 100 193 193 193 43 43 43 43 329 329 329 392 392
 392 392 128 274 274 274 274 16 203 203 203 203 276 171 171 171 171 171 193 193
 193 58 43 43 43 329 329 329 329 392 392 392 68 274 274 274 274 141 141 203
 7 7 7 171 171 171 171 171 193 193 58 58 58 43 43 329 329 329 329 329
 392 68 68 68 274 274 274 141 141 141 7 7 7 7 171 171 171 10 10 58
 58 58 58 58 43 329 329 329 329 329 68 68 68 68 68 274 274 274 376 7
 7 7 7 7 171 171 10 10 10 10 58 58 58 58 63 63 63 63 63 63
 68 68 68 68 68 68 274 376 376 376 376 7 7 7 7 10 10 10 10 10
 86 58 58 63 63 63 63 63 63 63 234 234 68 68 68 76 76 376 376 376
 376 7 7 7 232 232 232 10 10 86 86 86 63 63 63 63 63 63 63 373
 373 234 234 234 76 76 76 76 376 376 93 93 7 7 18 18 18 86 86 86
 86 86 310 310 63 63 63 63 373 373 373 234 234 234 76 76 76 76 93 93
 93 93 93 187 18 18 18 18 86 86 86 310 310 310 310 63 63 63 373 373
 373 38 234 234 76 76 76 93 93 93 93 93 187 187 18 18 18 18 18 86
 86 310 310 310 310 310 298 298 38 38 38 38 281 281 281 281 76 93 93 93
 93 187 187 187 187 18 18 18 18 44 44 310 310 310 310 310 298 298 38 38
 38 38 281 281 281 281 319 319 93 93 93 187 187 187 187 378 18 18 44 44
 44 44 310 310 310 310 298 77 38 38 38 281 281 281 281 281 319 319 319 93
 93 187 187 187 378 378 378 44 44 44 44 44 44 310 252 252 252 77 77 38
 101 101 281 281 281 281 319 319 319 93 299 184 184 285 378 378 378 44 44 44
 44 44 44 44 252 252 252 77 77 77 101 101 101 281 281 249 249 319 319 307
 307 184 184 184 378 378 378 44 44 44 44 44 44 44 252 252 252 166 166 166
 166 101 101 281 244 244 244 307 307 307 307 184 184 184 184 378 378 44 44 44
 44 44 44 360 252 185 166 166 166 166 166 101 101 244 244 244 244 307 307 307
 307 184 184 184 184 184 334 44 44 44 44 44 360 360 185 185 185 166 166 166
 166 166 237 237 237 244 307 307 307 307 307 184 184 184 182 182 334 334 105 225
 225 225 360 360 185 185 185 185 166 166 327 327 237 237 237 237 307 307 307 307
 307 192 192 192 182 182 182 334 225 225 225 225 360 360 185 185 185 185 327 327
 327 327 327 237 237 237 88 88 88 307 192 192 192 192 182 182 182 225 225 225
 225 225 390 390 390 185 185 5 327 327 327 327 327 354 354 354 88 88 88 88
 192 192 192 192 192 182 182 225 225 225 225 225 390 390 390 390 5 5 5 327
 327 327 354 354 354 354 88 88 88 88 192 192 192 192 192 182 182 225 225 225
 225 225 390 390 390 391 5 5 5 219 219 219 354 354 354 354 88 88 88 88
 35 35 35 35 35 290 290 290 290 225 225 390 390 390 390 391 5 5 5 219
 219 219 219 354 354 354 263 263 263 263 35 35 35 35 35 290 290 290 290 290
 290 390 390 390 390 267 267 267 267 219 219 219 219 219 198 198 198 263 263 263
 35 35 35 35 35 100 202 202 290 380 380 380 136 136 136 25 25 25 267 267
 219 219 359 359 198 198 198 198 198 186 186 35 35 35 100 100 202 202 202 202
 173 173 136 136 136 25 25 25 25 25 359 359 359 359 359 198 198 198 186 186
 186 186 276 100 100 100 202 202 202 202 173 173 173 136 136 254 25 25 254 82
 359 359 359 359 359 198 198 198 186 186 186 186 276 276 100 100 202 202 202 202
 173 173 173 43 43 254 254 254 392 392 392 392 128 128 359 198 16 16 186 186
 186 276 276 276 276 100 202 202 202 202 193 173 43 43 43 254 254 392 392 392
 392 392 128 128 128 16 16 16 16 186 203 276 276 276 276 276 202 202 202 193
 193 43 43 43 43 43 254 392 392 392 392 392 128 274 274 274 16 16 16 16
 203 276 276 276 276 51 51 202 193 193 193 43 43 43 43 329 329 329 392 392
 392 392 392 274 274 274 274 16 16 203 203 276 276 276 171 171 51 51 193 193
 193 58 43 43 43 329 329 329 329 392 392 392 68 274 274 274 274 274 16 203
 7 7 7 171 171 171 51 51 51 193 58 58 58 43 43 329 329 329 329 329
 392 68 68 68 274 274 274 274 141 7 7 7 7 7 171 171 232 232 232 58
 58 58 58 58 116 116 116 116 329 329 68 68 68 68 68 274 274 274 376 7
 7 7 7 7 232 232 232 232 232 232 58 58 58 58 116 116 116 116 116 234
 234 68 68 68 68 68 274 274 376 7 7 7 7 7 232 232 232 232 232 232
 86 58 58 63 63 63 63 63 63 234 234 234 234 68 68 76 76 76 376 7
 7 7 7 7 232 232 232 232 232 86 86 310 310 63 63 63 63 63 63 234
 234 234 234 234 76 76 76 76 376 376 395 395 395 395 232 232 232 232 86 86
 86 310 310 310 63 63 63 63 63 234 234 234 234 234 76 76 76 76 93 93
 395 395 395 395 18 18 18 18 18 86 86 310 310 310 310 63 63 63 373 234
 234 234 234 234 33 76 76 76 93 93 395 395 395 395 18 18 18 18 18 86
 310 310 310 310 310 310 63 63 38 38 234 234 234 33 33 33 33 112 112 93
 395 395 395 120 187 18 18 18 18 44 44 310 310 310 310 310 310 77 77 38
 38 38 281 281 33 33 33 112 112 395 395 395 120 120 120 378 18 18 44 44
 44 44 310 310 310 310 77 77 77 77 101 101 281 281 281 33 249 249 319 395
 299 299 187 120 378 378 378 378 44 44 44 44 201 201 201 310 77 77 77 77
 101 101 101 281 281 249 249 249 319 299 299 299 299 378 378 378 378 378 44 44
 44 44 201 201 201 252 77 77 77 77 101 101 101 281 249 249 249 249 307 307
 307 299 299 378 378 378 378 378 44 44 44 44 44 201 201 252 252 77 77 166
 101 101 101 249 249 244 249 307 307 307 307 307 184 184 378 378 378 44 44 44
 44 44 44 360 360 185 166 166 166 166 166 101 101 249 244 244 244 307 307 307
 307 307 184 184 334 334 334 334 44 44 44 44 360 360 360 185 185 325 166 166
 166 101 237 237 244 244 307 307 307 307 307 96 184 334 334 334 334 334 20 20
 20 360 360 360 360 185 185 325 325 325 327 327 327 237 237 307 307 307 307 307
 307 96 334 334 334 334 334 334 225 225 225 225 360 360 360 185 185 325 325 327
 327 327 327 327 24 24 307 307 307 307 307 192 192 192 334 334 334 334 225 225
 225 225 360 391 391 391 391 325 325 327 327 327 327 327 24 24 88 88 88 307
 330 192 192 192 192 334 334 334 225 225 225 225 390 391 391 391 391 5 126 327
 327 327 327 354 354 354 88 88 88 88 330 192 192 192 192 334 182 225 225 225
 225 225 390 391 391 391 391 267 126 126 327 327 327 354 354 354 354 88 88 330
 330 192 192 192 192 290 290 290 290 380 225 394 390 391 391 391 267 267 267 219
 219 219 219 354 354 354 354 263 263 330 35 35 35 35 35 290 290 290 290 380
 380 394 390 390 391 267 267 267 267 267 219 219 219 359 198 198 198 263 263 263
 186 35 35 35 146 202 202 202 380 380 380 380 136 136 136 25 25 25 25 267
 359 359 359 359 359 353 353 198 198 186 186 186 276 276 202 202 202 202 202 202
 380 136 136 136 136 25 25 25 25 25 359 359 359 359 359 359 359 198 186 186
 186 186 276 276 202 202 202 202 202 202 202 136 136 136 136 25 25 25 25 25
 359 359 359 359 359 359 359 198 186 186 186 276 276 276 276 202 202 202 202 202
 202 173 52 52 52 52 25 25 392 392 392 359 359 359 359 359 16 16 186 186
 186 276 276 276 276 202 202 202 202 202 202 202 52 52 52 52 52 392 392 392
 392 392 359 359 359 16 16 16 16 186 276 276 276 276 276 276 202 202 202 202
 202 300 43 52 52 52 52 392 392 392 392 392 392 274 274 274 16 16 16 16
 276 276 276 276 276 51 51 202 202 202 300 300 43 52 52 52 52 392 392 392
 392 392 73 274 274 274 274 16 16 16 276 276 276 276 51 51 51 51 202 202
 300 300 43 52 52 52 116 392 392 392 392 392 73 73 274 274 274 274 16 16
 7 7 7 51 51 51 51 51 51 108 108 58 58 116 116 116 116 116 116 392
 392 68 68 68 274 274 274 274 16 7 7 7 7 7 51 232 232 232 232 232
 58 58 58 116 116 116 116 116 116 116 234 68 68 68 68 274 274 274 7 7
 7 7 7 7 232 232 232 232 232 232 232 58 116 116 116 116 116 116 116 234
 234 234 234 68 68 68 274 56 56 7 7 7 7 7 232 232 232 232 232 232
 232 232 116 116 116 116 116 116 116 234 234 234 234 234 234 76 76 56 56 7
 7 7 7 7 232 232 232 232 232 232 232 310 310 116 116 116 116 116 116 234
 234 234 234 234 234 76 76 56 56 56 395 395 395 395 232 232 232 232 232 232
 86 310 310 310 310 116 116 116 116 234 234 234 234 234 234 76 76 56 56 56