# vtk DataFile Version 2.0
Data set from IO Version 6.4.197.9a0dee2
ASCII

DATASET RECTILINEAR_GRID
DIMENSIONS 31 31 31
X_COORDINATES 31 float
-5.850000 5.850000 17.549999 29.249998 40.950001 52.650002 64.349998 76.050003 87.750000 99.449997 111.150002 122.849998 134.549988 146.249985 157.949997 169.649994 181.349991 193.049988 204.749985 216.449997 228.149994 
239.849991 251.549988 263.250000 274.949982 286.649994 298.349976 310.049988 321.750000 333.449982 345.149994 
Y_COORDINATES 31 float
-5.850000 5.850000 17.549999 29.249998 40.950001 52.650002 64.349998 76.050003 87.750000 99.449997 111.150002 122.849998 134.549988 146.249985 157.949997 169.649994 181.349991 193.049988 204.749985 216.449997 228.149994 
239.849991 251.549988 263.250000 274.949982 286.649994 298.349976 310.049988 321.750000 333.449982 345.149994 
Z_COORDINATES 31 float
-5.850000 5.850000 17.549999 29.249998 40.950001 52.650002 64.349998 76.050003 87.750000 99.449997 111.150002 122.849998 134.549988 146.249985 157.949997 169.649994 181.349991 193.049988 204.749985 216.449997 228.149994 
239.849991 251.549988 263.250000 274.949982 286.649994 298.349976 310.049988 321.750000 333.449982 345.149994 
CELL_DATA 27000
SCALARS FeatureIds int 1
LOOKUP_TABLE default
 379 379 379 379 303 303 303 303 303 66 230 230 230 230 230 230 271 271 271 63
 63 63 390 390 390 191 191 191 191 191 379 379 379 303 303 303 303 303 303 230
 230 230 230 230 230 230 271 271 271 63 63 63 390 390 390 191 191 191 191 191
 87 87 360 360 360 360 303 303 303 230 230 230 230 230 230 271 271 271 271 271
 63 165 390 390 390 191 191 126 126 60 87 87 360 360 360 360 360 134 134 134
 230 230 138 138 138 49 49 49 271 245 245 165 35 390 390 60 60 126 60 60
 87 87 360 360 360 360 360 134 134 134 138 138 138 138 138 49 49 49 245 245
 245 245 35 35 35 60 60 60 60 60 87 87 87 360 360 360 360 134 134 134
 138 138 138 138 138 138 49 49 245 245 245 35 35 35 35 60 60 60 60 60
 87 87 87 360 360 360 360 134 134 134 138 138 138 138 138 138 49 322 322 245
 322 322 35 35 35 60 60 60 60 60 12 12 12 299 299 360 360 134 134 134
 292 138 138 138 138 138 322 322 322 322 322 322 35 35 35 60 60 60 60 60
 12 12 12 241 241 241 241 241 134 134 292 292 96 96 96 96 96 322 322 322
 322 322 172 172 51 51 377 377 377 377 12 12 12 241 241 241 241 241 241 198
 96 96 96 96 96 96 96 322 322 322 322 322 172 172 51 51 377 377 377 377
 12 12 12 241 241 241 241 241 241 96 96 96 96 96 96 96 96 154 154 154
 154 154 172 172 51 51 377 377 377 377 12 12 12 241 241 241 241 241 241 96
 96 96 96 96 96 96 96 154 154 154 154 154 154 172 51 51 377 377 377 377
 12 12 12 233 233 233 233 233 233 96 96 96 96 96 96 96 96 154 154 154
 154 154 154 154 255 255 377 377 377 377 326 153 153 233 233 233 233 233 233 96
 96 96 96 96 96 96 176 154 154 154 154 154 154 255 255 255 255 255 255 326
 326 153 153 153 233 233 233 233 282 282 282 96 96 96 96 176 176 176 154 154
 154 154 154 255 255 255 255 255 255 326 153 153 153 153 153 233 233 233 282 282
 282 282 96 96 96 176 176 176 176 154 154 154 154 255 255 255 255 255 255 326
 153 153 153 153 153 310 310 310 282 282 282 282 69 69 176 176 176 176 176 176
 154 154 255 255 255 255 255 255 255 326 153 153 153 153 310 310 310 310 282 224
 282 282 354 354 176 176 176 176 176 176 154 154 46 255 255 255 255 255 255 326
 14 14 153 153 310 310 310 224 224 224 224 224 354 354 354 176 176 176 176 395
 395 395 46 46 255 255 255 255 318 318 14 14 97 97 97 97 97 97 224 224
 224 224 354 313 313 313 313 395 395 395 395 395 267 46 255 255 255 318 318 318
 151 151 97 97 97 97 97 97 224 224 224 313 313 313 313 313 313 173 173 395
 395 395 267 41 41 41 41 41 332 332 151 151 151 97 97 97 97 97 97 224
 224 313 313 313 313 313 173 173 173 173 173 173 173 41 41 41 41 41 332 332
 151 151 151 97 97 97 97 97 97 224 313 313 313 313 313 313 173 173 173 173
 173 173 173 41 41 41 41 41 332 332 151 151 151 97 97 97 97 97 97 205
 313 313 313 313 300 300 173 173 173 173 173 173 173 41 41 41 41 41 332 332
 332 151 199 163 163 163 163 205 205 205 205 313 313 300 300 300 300 173 173 173
 173 173 61 41 41 41 41 41 332 332 199 199 199 163 163 163 205 205 205 205
 205 205 313 300 300 300 300 173 173 173 173 173 61 41 41 41 234 234 234 234
 199 199 199 163 163 163 205 205 205 205 205 205 205 300 300 300 300 173 173 173
 63 63 63 180 180 234 234 234 234 234 234 199 199 199 163 163 205 205 205 205
 205 205 230 81 81 81 312 312 173 63 63 63 63 180 180 180 234 234 234 234
 234 234 199 199 163 303 303 303 303 66 66 230 230 81 81 81 312 312 312 63
 63 63 63 390 390 390 234 234 234 234 234 379 379 379 303 303 303 303 303 66
 230 230 230 81 81 81 312 312 312 63 63 63 390 390 390 390 191 234 234 234
 379 379 379 379 303 303 303 303 303 230 230 230 230 230 81 81 312 312 312 63
 63 63 390 390 390 390 191 191 191 379 379 379 379 379 303 303 303 303 303 230
 230 230 230 230 230 81 271 271 271 63 63 63 390 390 390 390 191 191 191 191
 215 215 215 360 360 360 303 303 303 230 230 230 230 230 230 230 271 271 271 165
 165 165 165 390 390 390 126 126 126 126 215 215 215 360 360 360 360 360 134 230
 230 230 138 138 138 49 49 49 271 165 165 165 165 390 390 60 126 126 126 60
 215 215 360 360 360 360 360 360 134 134 138 138 138 138 138 138 49 49 322 322
 165 165 35 35 35 60 60 126 60 60 215 215 360 360 360 360 360 360 134 134
 138 138 138 138 138 138 337 322 322 322 322 35 35 35 35 35 60 60 60 60
 124 124 360 360 360 360 360 360 134 134 138 138 138 138 138 138 337 322 322 322
 322 322 35 35 35 35 60 60 60 60 124 124 360 360 360 360 360 360 134 134
 138 138 138 138 138 337 337 322 322 322 322 322 35 35 35 35 60 60 60 60
 12 12 12 241 241 241 241 241 134 198 96 96 96 96 96 96 337 322 322 322
 322 172 172 172 51 51 51 377 377 377 12 12 12 241 241 241 241 241 198 198
 96 96 96 96 96 96 96 266 322 322 322 172 172 172 51 51 51 377 377 377
 12 12 12 241 241 241 241 241 198 198 96 96 96 96 96 96 96 266 154 154
 154 172 172 172 51 51 51 377 377 377 12 12 12 241 241 241 241 241 198 96
 96 96 96 96 96 96 96 154 154 154 154 154 172 172 172 51 377 377 377 377
 326 12 12 233 233 233 233 233 233 96 96 96 96 96 96 96 96 154 154 154
 154 154 154 172 172 80 80 377 377 326 326 326 153 233 233 233 233 233 282 96
 96 96 96 96 96 96 154 154 154 154 154 154 154 154 255 80 80 80 326 326
 326 326 153 153 233 233 233 233 282 282 282 96 96 96 96 176 176 154 154 154
 154 154 154 255 255 255 255 255 326 326 326 153 153 153 153 233 233 282 282 282
 282 282 69 69 96 176 176 176 154 154 154 154 154 255 255 255 255 255 326 326
 326 153 153 153 310 310 310 282 282 282 282 282 69 69 69 176 176 176 176 154
 154 154 46 46 255 255 255 255 326 326 326 14 153 153 310 310 310 310 224 224
 224 69 69 69 69 176 176 176 176 154 154 46 46 46 255 255 255 255 318 326
 14 14 14 97 310 310 310 224 224 224 224 224 69 69 69 69 176 176 395 395
 395 395 46 46 46 255 318 318 318 318 14 14 97 97 97 97 97 97 224 224
 224 224 313 313 313 313 313 395 395 395 395 395 267 267 267 267 318 318 318 318
 14 14 97 97 97 97 97 97 224 224 224 313 313 313 313 313 313 395 395 395
 395 395 267 267 267 267 318 318 318 318 151 151 97 97 97 97 97 97 97 224
 224 313 313 313 313 313 173 173 173 173 173 173 267 267 267 41 41 41 332 332
 332 151 97 97 97 97 97 97 97 224 313 313 313 313 313 313 173 173 173 173
 173 173 173 267 41 41 41 332 332 332 332 151 97 97 97 97 97 97 97 97
 118 118 313 313 313 313 173 173 173 173 173 173 173 41 41 41 41 332 332 332
 332 199 199 199 97 97 97 97 97 205 118 118 313 300 300 300 173 173 173 173
 173 173 173 41 393 393 393 332 332 332 199 199 199 199 199 163 97 205 205 205
 205 118 313 300 300 300 173 173 173 173 173 173 173 393 393 393 393 234 234 234
 199 199 199 199 199 163 205 205 205 205 205 205 230 81 81 391 391 173 173 173
 173 63 180 180 180 393 234 234 234 234 234 199 199 199 199 199 205 205 205 205
 205 230 230 81 81 81 312 312 173 63 63 63 180 180 180 393 234 234 234 234
 379 379 379 379 199 303 303 303 303 205 230 230 230 81 81 81 312 312 312 63
 63 63 180 180 390 390 234 234 234 234 379 379 379 379 303 303 303 303 303 230
 230 230 230 81 81 81 312 312 312 63 63 63 390 390 390 390 234 234 234 234
 379 379 379 379 379 303 303 303 303 230 230 230 230 230 230 323 312 312 312 63
 63 63 390 390 390 390 195 195 195 379 379 379 379 379 379 303 303 303 303 230
 230 230 230 230 323 323 323 271 167 167 165 390 390 390 390 390 195 195 195 379
 215 215 215 215 360 360 88 88 88 230 230 230 230 230 230 323 323 323 165 165
 165 165 165 390 390 390 195 195 195 195 215 215 215 360 360 360 360 88 88 230
 230 230 230 230 230 323 323 323 165 165 165 165 165 165 35 126 126 126 126 215
 215 215 215 360 360 360 360 360 88 88 138 138 138 138 138 8 8 322 322 322
 165 165 165 35 35 60 60 126 60 215 215 215 215 360 360 360 360 360 360 134
 138 138 138 138 138 8 337 322 322 322 322 322 35 35 35 35 60 60 60 60
 124 124 124 360 360 360 360 360 360 360 138 138 138 138 138 337 337 337 322 322
 322 322 35 35 35 35 60 60 60 60 124 124 124 360 360 360 360 360 360 198
 198 138 138 138 337 337 337 337 322 322 322 322 172 35 35 35 51 60 60 124
 124 124 124 360 360 360 360 360 198 198 198 96 96 96 96 337 337 266 322 322
 322 172 172 172 172 51 51 377 377 377 124 124 12 241 241 241 241 198 198 198
 198 96 96 96 96 96 266 266 266 322 172 172 172 172 172 51 51 377 377 377
 12 12 12 241 241 241 241 198 198 198 198 96 96 96 96 96 266 266 266 154
 172 172 172 172 172 51 51 377 377 377 326 12 12 231 174 174 241 198 198 198
 96 96 96 96 96 96 96 154 154 154 154 172 172 172 172 80 51 377 377 326
 326 326 326 174 233 233 233 233 198 96 96 96 96 96 96 96 96 154 154 154
 154 154 154 172 80 80 80 80 326 326 326 326 326 174 233 233 233 73 282 96
 96 96 96 96 96 96 154 154 154 154 154 154 154 80 80 80 80 80 326 326
 326 326 326 153 233 233 233 282 282 282 282 96 96 96 96 96 154 154 154 154
 154 154 154 80 80 80 80 80 326 326 326 326 153 153 153 310 310 282 282 282
 282 282 69 69 69 176 154 154 154 154 154 154 46 46 46 255 255 326 326 326
 326 326 150 153 310 310 310 310 282 282 282 69 69 69 69 69 176 176 154 154
 154 46 46 46 46 255 255 255 326 326 326 14 14 310 310 310 310 310 282 224
 282 69 69 69 69 69 176 176 176 381 381 46 46 46 46 46 318 318 318 326
 14 14 14 97 97 310 97 97 224 224 224 69 69 69 69 69 69 395 395 395
 395 395 46 46 46 46 318 318 318 318 14 14 14 97 97 97 97 97 224 224
 224 224 69 69 69 69 69 395 395 395 395 395 267 267 267 267 318 318 318 318
 14 14 14 97 97 97 97 97 224 224 224 313 313 313 313 313 313 395 395 395
 395 395 267 267 267 267 318 318 318 318 14 14 97 97 97 97 97 97 97 224
 224 313 313 313 313 313 173 173 173 395 395 173 267 267 267 267 318 318 318 332
 332 151 97 97 97 97 97 97 97 97 118 118 313 313 313 313 173 173 173 173
 173 173 267 267 267 267 175 175 332 332 332 332 97 97 97 97 97 97 97 97
 118 118 118 313 313 313 173 173 173 173 173 173 173 267 267 393 175 175 332 332
 332 199 199 199 97 97 97 97 97 118 118 118 118 313 391 391 391 173 173 173
 173 173 173 252 393 393 393 175 175 332 199 199 199 199 199 364 364 97 97 118
 118 118 118 391 391 391 391 173 173 173 173 173 252 252 393 393 393 175 175 175
 199 199 199 199 199 364 364 364 205 205 205 185 118 391 391 391 391 173 173 173
 173 252 252 252 393 393 393 234 234 234 379 199 199 199 199 364 364 364 205 205
 185 185 230 81 81 391 391 312 173 63 63 252 252 180 180 393 234 234 234 234
 379 379 379 379 364 364 303 303 303 185 185 185 230 81 81 81 312 312 312 63
 63 63 180 180 390 390 234 234 234 234 379 379 379 379 364 303 303 303 303 230
 230 230 230 81 81 81 312 312 312 63 63 63 390 390 390 390 234 234 234 379
 379 379 379 379 379 88 88 88 303 185 185 185 185 230 323 323 323 312 167 167
 167 281 281 390 368 368 195 195 195 379 379 379 379 379 379 88 88 88 88 88
 230 230 230 230 323 323 323 167 167 167 281 281 281 368 368 368 195 195 195 379
 215 215 215 159 159 88 88 88 88 88 230 230 230 230 323 323 323 323 167 167
 165 165 165 165 368 368 195 195 195 195 215 215 215 159 159 159 88 88 88 88
 230 230 230 204 204 204 8 8 165 165 165 165 165 165 368 368 126 126 126 215
 215 215 215 159 159 159 159 88 88 88 88 138 138 8 8 8 8 8 322 165
 165 165 165 13 13 13 60 126 60 215 215 215 215 159 159 159 159 159 88 88
 88 138 8 8 8 8 8 8 322 322 322 62 13 13 13 13 60 60 60 215
 124 124 124 159 159 159 159 159 159 198 138 138 138 8 8 337 337 337 322 322
 322 322 13 13 13 13 291 60 291 215 124 124 124 124 159 159 159 159 198 198
 198 138 138 8 337 337 337 337 322 322 322 172 172 172 172 13 291 291 124 124
 124 124 124 124 159 159 159 198 198 198 198 198 96 96 337 337 337 266 266 322
 322 172 172 172 172 51 51 291 291 124 124 124 124 124 159 159 198 198 198 198
 198 198 96 96 96 337 266 266 266 266 172 172 172 172 172 51 51 291 291 124
 124 124 231 231 174 174 198 198 198 198 198 96 96 96 96 96 266 266 266 266
 172 172 172 172 172 51 51 357 357 357 326 326 231 231 174 174 174 198 198 198
 96 96 96 96 96 96 23 23 154 154 154 172 172 172 172 80 80 357 357 357
 326 326 174 174 174 174 174 73 73 198 96 96 96 96 96 96 23 23 154 154
 154 154 154 80 80 80 80 357 357 357 326 326 326 174 174 174 174 73 73 73
 96 96 96 96 96 23 23 23 154 154 154 154 154 80 80 80 80 357 357 326
 326 326 326 174 174 174 73 73 73 73 282 96 96 96 96 23 23 23 154 154
 154 154 227 227 80 80 80 357 326 326 326 326 150 150 153 310 73 73 73 73
 282 69 69 69 69 23 23 23 154 154 154 381 46 46 274 274 80 357 326 326
 150 150 150 150 310 310 310 73 282 282 122 69 69 69 69 69 23 23 154 381
 381 381 46 46 46 274 274 357 326 326 150 150 150 150 97 97 97 386 386 122
 122 69 69 69 69 69 69 176 381 381 381 381 46 46 46 46 46 318 150 150
 14 14 14 97 97 97 97 386 386 224 224 69 69 69 69 69 69 395 395 395
 381 381 46 46 46 46 318 318 318 150 14 14 14 97 97 97 97 386 386 224
 224 69 69 69 69 69 69 395 395 395 395 381 267 267 46 46 318 318 318 14
 14 14 14 97 97 97 97 97 386 386 224 313 313 313 313 313 208 395 395 395
 395 395 267 267 267 267 318 318 318 30 30 30 97 97 97 97 97 97 97 372
 118 313 313 313 313 208 208 173 173 395 395 267 267 267 267 267 318 318 318 30
 30 30 97 97 97 97 97 97 97 372 118 118 118 313 313 313 173 173 173 173
 173 173 267 267 267 267 175 175 175 175 30 30 97 97 97 97 97 97 97 372
 118 118 118 313 313 391 173 173 173 173 173 173 267 267 267 393 175 175 175 175
 199 199 199 97 97 97 97 97 97 372 118 118 118 118 391 391 391 173 173 173
 173 173 252 252 393 393 393 175 175 175 199 199 199 199 199 364 364 364 364 372
 118 118 118 22 391 391 391 173 173 173 173 252 252 252 393 393 393 175 175 175
 199 199 199 199 364 364 364 364 364 185 185 185 22 22 391 391 391 391 173 173
 173 252 252 252 393 393 393 175 175 193 379 379 199 199 364 364 364 364 364 185
 185 185 185 22 22 22 391 320 320 320 252 252 252 252 252 393 393 234 234 193
 379 379 379 379 364 364 364 364 185 185 185 185 185 22 22 81 312 312 320 63
 63 252 252 252 252 252 234 234 234 379 379 379 379 379 364 364 364 303 303 185
 185 185 185 185 81 81 312 312 312 167 63 252 252 252 252 390 368 234 234 379
 379 379 379 379 379 88 88 88 88 185 185 185 185 230 323 323 323 167 167 167
 167 281 281 368 368 368 368 195 195 379 379 379 379 379 88 88 88 88 88 88
 185 185 185 230 323 323 323 167 167 167 167 281 281 368 368 368 368 195 195 105
 105 215 215 159 159 88 88 88 88 88 88 230 230 204 204 204 204 167 167 167
 167 165 165 368 368 368 368 195 195 105 215 215 215 159 159 159 88 88 88 88
 88 88 204 204 204 204 204 8 167 167 165 165 165 13 368 368 368 105 105 105
 215 215 215 159 159 159 159 88 88 88 88 88 8 8 8 8 8 8 8 62
 62 62 13 13 13 13 13 105 105 105 215 215 215 159 159 159 159 159 88 88
 88 8 8 8 8 8 8 8 209 209 62 62 13 13 13 13 13 291 105 105
 260 260 260 159 159 159 159 159 159 88 378 350 8 8 8 8 8 337 209 209
 209 62 13 13 13 13 291 291 291 260 260 260 260 159 159 159 159 159 378 378
 378 378 8 8 8 337 337 337 209 209 209 209 172 13 13 13 291 291 291 260
 260 260 260 159 159 159 159 378 378 378 378 378 378 96 337 337 337 337 209 209
 209 172 172 240 240 240 291 291 291 260 260 260 260 231 159 159 159 378 378 378
 378 378 96 96 96 337 266 266 266 209 172 172 172 240 240 240 291 291 291 260
 260 260 231 231 231 231 378 378 378 378 378 378 96 96 96 96 266 266 266 266
 172 172 172 240 240 240 357 357 357 357 326 231 231 231 174 174 174 378 378 378
 378 96 96 96 96 23 23 23 23 23 172 172 172 240 240 80 357 357 357 357
 326 231 231 174 174 174 174 73 73 378 96 96 96 96 96 23 23 23 23 23
 154 227 227 227 227 80 357 357 357 357 326 326 231 174 174 174 73 73 73 73
 121 96 96 96 23 23 23 23 23 23 154 227 227 227 227 80 357 357 357 326
 326 326 150 150 67 67 73 73 73 73 121 121 96 96 23 23 23 23 23 23
 23 381 227 227 227 80 357 357 357 326 326 150 150 150 67 67 73 73 73 73
 121 121 69 69 69 23 23 23 23 23 381 381 381 274 274 274 357 357 357 326
 150 150 150 150 26 26 26 73 73 122 122 122 69 69 69 64 64 23 23 381
 381 381 381 274 274 274 274 357 92 150 150 150 150 150 26 26 26 386 386 122
 122 122 69 69 69 64 64 64 381 381 381 381 381 46 46 274 274 92 92 150
 150 150 150 97 97 386 386 386 386 386 122 122 69 69 69 64 64 64 381 381
 381 381 381 46 46 46 318 318 318 150 14 14 14 97 97 97 386 386 386 386
 386 122 69 69 69 208 64 250 250 381 381 381 381 267 46 46 318 318 318 14
 30 30 30 97 97 97 97 386 386 386 386 157 313 313 208 208 208 250 250 395
 395 381 267 267 267 267 318 318 318 30 30 30 30 97 97 97 97 97 97 372
 372 157 157 157 208 208 208 208 173 395 395 267 267 267 267 267 318 318 318 30
 30 30 30 97 97 97 97 97 372 372 372 157 157 157 208 208 208 173 173 173
 173 267 267 267 267 175 175 175 175 30 30 30 97 97 97 97 97 97 372 372
 372 118 118 157 208 208 208 173 173 173 173 173 267 267 252 175 175 175 175 175
 175 25 25 97 97 97 97 97 372 372 372 118 118 157 391 391 391 173 173 173
 173 252 252 252 252 393 175 175 175 175 25 25 25 199 364 364 364 364 372 372
 372 22 22 22 391 391 391 320 173 173 252 252 252 252 252 393 175 175 175 175
 193 25 199 364 364 364 364 364 364 372 372 22 22 22 22 391 320 320 320 320
 252 252 252 252 252 393 175 175 193 193 193 379 379 364 364 364 364 364 364 185
 185 185 22 22 22 22 320 320 320 320 252 252 252 252 252 252 252 193 193 193
 379 379 379 364 364 364 364 364 364 185 185 185 185 22 22 22 320 320 320 320
 252 252 252 252 252 252 252 193 193 193 379 379 379 379 364 364 364 364 185 185
 185 185 185 22 22 22 320 320 167 167 167 252 252 252 252 368 368 368 193 379
 379 379 379 379 364 364 88 88 88 185 185 185 185 16 16 323 167 167 167 167
 167 281 281 368 368 368 368 368 105 105 105 105 105 159 364 88 88 88 88 88
 185 185 185 204 204 204 204 167 167 167 167 281 281 368 139 368 368 368 105 105
 105 105 105 159 159 88 88 88 88 88 88 88 204 204 204 204 204 167 167 167
 167 165 165 368 368 368 368 105 105 105 105 105 105 159 159 159 88 88 88 88
 88 88 204 204 204 204 204 204 167 167 62 62 13 13 368 368 105 105 105 105
 105 215 159 159 159 159 159 88 88 88 88 88 8 8 8 8 8 8 8 62
 62 62 13 13 13 13 105 105 105 105 105 260 159 159 159 159 159 159 88 88
 88 350 8 8 8 8 8 8 209 209 62 62 13 13 13 13 13 105 105 105
 260 260 260 159 159 159 159 159 159 88 350 350 350 8 8 8 8 8 209 209
 209 209 13 13 13 13 291 291 291 260 260 260 260 159 159 159 159 159 378 378
 378 350 350 8 8 8 8 209 209 209 209 209 13 13 13 13 291 291 291 260
 260 260 260 260 159 159 159 378 378 378 378 378 350 8 8 337 337 337 209 209
 209 209 240 240 240 240 291 291 291 260 260 260 260 231 231 159 159 378 378 378
 378 378 350 96 243 337 266 266 209 209 209 240 240 240 240 240 291 291 291 260
 260 231 231 231 231 67 67 378 378 378 378 378 96 243 243 243 23 23 23 23
 172 240 240 240 240 240 357 357 357 357 231 231 231 231 231 174 67 67 378 378
 378 378 96 96 243 243 23 23 23 23 23 240 240 240 227 357 357 357 357 357
 231 231 231 231 174 174 67 67 73 73 378 96 96 96 23 23 23 23 23 23
 23 227 227 227 227 357 357 357 357 357 326 326 231 174 174 67 67 73 73 73
 121 121 121 32 23 23 23 23 23 23 23 227 227 227 227 357 357 357 357 357
 150 150 150 67 67 67 73 73 73 73 121 121 121 32 32 23 23 23 23 23
 23 381 227 227 227 357 357 357 357 357 150 150 150 150 67 67 73 73 73 121
 121 121 121 32 32 23 23 23 23 23 381 381 381 274 274 274 357 357 357 150
 150 150 150 150 26 26 26 73 73 121 121 122 122 32 64 64 64 23 23 381
 381 381 381 274 274 274 274 92 92 150 150 150 150 150 26 26 26 386 386 122
 122 122 122 69 64 64 64 64 381 381 381 381 381 381 274 274 274 92 92 92
 150 150 150 150 26 26 386 386 386 386 122 122 122 69 64 64 64 250 250 381
 381 381 381 381 46 46 367 367 92 92 150 150 30 97 97 386 386 386 386 386
 386 122 122 69 208 208 208 250 250 250 381 381 381 381 46 367 367 367 367 92
 30 30 30 30 97 97 386 386 386 386 386 122 157 208 208 208 208 250 250 250
 250 381 381 267 267 367 367 367 367 30 30 30 30 30 97 97 97 386 386 372
 372 157 157 208 208 208 208 208 250 250 250 267 267 267 267 267 367 367 367 30
 30 30 30 97 97 97 97 97 372 372 372 157 157 157 208 208 208 208 250 250
 173 267 267 267 267 175 175 175 175 30 30 30 30 97 97 97 97 372 372 372
 372 157 157 157 208 208 208 320 173 173 173 252 252 252 252 175 175 175 175 175
 25 25 25 97 97 97 364 372 372 372 372 157 157 157 391 391 320 320 320 173
 252 252 252 252 252 175 175 175 175 175 25 25 25 364 364 364 364 364 372 372
 372 22 22 22 22 320 320 320 320 320 252 252 252 252 252 252 175 175 175 175
 193 25 25 364 364 364 364 364 364 372 372 22 22 22 22 320 320 320 320 320
 252 252 252 252 252 252 175 175 193 193 193 193 364 364 364 364 364 364 364 364
 185 22 22 22 22 22 320 320 320 320 252 252 252 252 252 252 252 193 193 193
 193 379 379 364 364 364 364 364 364 185 185 185 22 22 22 22 320 320 320 320
 252 252 252 252 252 252 252 193 193 193 379 379 379 364 364 364 364 364 185 185
 185 185 185 22 22 22 320 320 320 167 167 252 252 252 252 368 368 193 193 193
 105 105 105 364 364 364 88 88 88 88 185 16 16 16 16 16 320 320 167 167
 167 167 281 368 139 368 368 368 105 105 105 105 105 105 364 88 88 88 88 88
 88 16 16 16 16 204 204 167 167 167 167 167 281 368 139 368 368 105 105 105
 105 105 105 159 159 88 88 88 88 88 88 16 16 204 204 204 204 167 167 167
 167 167 368 368 368 368 368 105 105 105 105 105 105 159 159 159 88 88 88 88
 88 88 8 8 204 204 204 8 167 167 167 223 13 13 368 368 105 105 105 105
 105 105 105 159 159 159 159 88 88 88 88 88 8 8 8 8 8 8 363 363
 223 223 13 13 13 13 105 105 105 105 105 105 159 159 159 159 159 159 88 88
 88 350 350 8 8 8 8 8 363 209 223 223 13 13 13 13 105 105 105 105
 260 260 260 159 159 159 159 159 159 88 350 350 350 8 8 8 8 8 209 209
 209 223 13 13 13 13 291 291 291 105 260 260 260 159 159 159 159 159 378 378
 350 350 350 350 8 8 8 209 209 209 209 209 13 13 13 13 291 291 291 260
 260 260 260 260 159 159 159 378 378 378 378 350 350 350 8 297 297 297 209 209
 209 209 240 240 240 240 291 291 291 260 98 98 98 231 159 159 159 378 378 378
 378 378 40 40 243 243 297 297 297 209 209 209 240 240 240 240 291 291 291 98
 98 98 231 231 231 67 67 378 378 378 378 378 40 243 243 243 297 297 297 297
 209 240 240 240 240 240 357 357 357 98 98 231 231 231 231 67 67 67 378 378
 378 378 129 129 243 243 23 23 23 23 23 211 240 240 240 357 357 357 357 357
 98 231 231 231 67 67 67 67 73 378 378 129 129 129 243 23 23 23 23 23
 23 227 227 227 227 357 357 357 357 357 150 150 67 67 67 67 67 67 73 73
 121 121 121 32 32 23 23 23 23 23 23 227 227 227 227 357 357 357 357 357
 150 150 150 67 67 67 67 73 73 121 121 121 121 32 32 23 23 23 23 23
 23 381 227 227 227 357 357 357 357 357 150 150 150 150 67 67 67 73 99 121
 121 121 121 32 32 32 23 23 23 23 381 381 381 274 274 274 357 357 92 92
 150 150 150 150 311 311 311 73 99 121 121 121 121 32 32 64 23 23 23 381
 381 381 381 274 274 274 274 92 92 92 150 150 150 150 311 311 311 386 386 386
 122 122 122 32 64 64 64 64 250 381 381 381 381 381 274 274 92 92 92 92
 92 150 150 150 311 311 386 386 386 386 122 122 122 69 64 64 64 250 250 250
 250 381 381 381 274 274 367 367 92 92 92 150 150 150 97 386 386 386 386 386
 386 122 122 69 64 208 64 250 250 250 250 381 381 381 381 367 367 367 367 92
 30 30 30 30 97 386 386 386 386 386 18 18 157 208 208 208 208 250 250 250
 250 250 2 2 2 2 367 367 367 30 30 30 30 30 97 97 97 386 386 18
 18 157 157 208 208 208 208 250 250 250 250 250 2 2 2 2 178 178 178 30
 30 30 30 30 97 97 97 372 372 372 372 157 157 157 208 208 208 250 250 250
 250 2 2 2 2 175 175 175 175 30 30 30 30 30 97 97 97 372 372 372
 372 157 157 157 208 208 208 320 250 250 250 252 252 252 252 175 175 175 175 175
 328 25 25 97 97 97 216 216 372 372 372 157 157 157 22 320 320 320 320 320
 252 252 252 252 252 175 175 175 175 328 328 25 25 364 364 364 364 364 372 372
 372 22 22 22 22 320 320 320 320 320 252 252 252 252 252 252 175 175 175 328
 328 25 25 364 364 364 364 364 364 372 22 22 22 22 22 320 320 320 320 320
 320 252 252 252 252 252 175 175 193 328 193 193 364 364 364 364 364 364 364 364
 22 22 22 22 22 320 320 320 320 320 320 252 252 252 252 252 252 193 193 193
 193 193 364 364 364 364 364 364 364 185 185 22 22 22 22 320 320 320 320 320
 320 252 252 252 252 252 252 193 193 193 379 379 364 364 364 364 364 364 364 185
 185 16 16 16 16 320 320 320 320 320 320 252 252 252 252 368 368 368 193 193
 105 105 105 364 364 394 88 88 88 285 16 16 16 16 16 16 320 320 320 167
 167 315 315 315 315 368 368 105 105 105 105 105 105 105 394 394 88 88 88 88
 16 16 16 16 16 16 320 167 167 167 167 167 315 315 368 368 368 105 105 105
 105 105 105 105 159 88 88 88 88 88 88 16 16 16 16 204 204 363 167 167
 167 315 315 315 368 368 105 105 105 105 105 105 105 159 159 159 88 88 88 88
 88 88 16 8 8 204 363 363 363 363 223 223 223 13 368 368 105 105 105 105
 105 105 105 159 159 159 159 88 88 88 88 350 8 8 8 8 363 363 363 363
 223 223 223 13 13 13 105 105 105 105 105 105 105 159 159 159 159 159 88 88
 350 350 350 8 8 8 363 363 363 363 223 223 223 13 13 13 105 105 105 105
 105 260 260 159 159 159 159 159 159 88 350 350 350 350 8 8 363 363 363 363
 223 223 223 13 13 13 149 149 105 105 98 98 98 98 34 34 34 159 159 378
 350 350 350 350 8 8 363 363 363 209 209 223 223 13 13 213 291 291 291 98
 98 98 98 98 34 34 34 378 378 378 378 350 350 40 40 297 297 297 297 209
 209 209 240 240 240 240 291 291 291 98 98 98 98 98 98 34 34 378 378 378
 378 40 40 40 40 243 297 297 297 297 209 209 240 240 240 240 291 213 98 98
 98 98 98 98 67 67 67 24 378 378 378 40 40 129 243 243 297 297 297 297
 297 211 240 240 240 333 333 333 98 98 98 98 98 67 67 67 67 24 24 378
 378 40 129 129 243 243 243 297 23 23 211 211 211 240 240 333 333 357 357 98
 98 98 67 67 67 67 67 67 24 24 121 129 129 129 129 243 23 23 23 23
 211 211 211 227 227 333 333 357 357 357 150 67 67 67 67 67 67 67 67 99
 121 121 32 32 32 23 23 23 23 23 211 211 211 227 227 357 357 357 357 357
 150 150 150 67 67 67 67 67 99 99 121 121 32 32 32 32 23 23 23 23
 211 211 211 227 219 219 357 357 357 357 92 150 150 67 67 67 67 99 99 99
 121 121 32 32 32 32 23 23 23 23 381 381 381 228 219 219 219 92 92 92
 92 150 150 150 311 311 311 99 99 99 121 121 32 32 32 32 23 23 23 381
 381 381 381 228 228 219 219 92 92 92 92 150 150 150 311 311 311 386 386 99
 121 121 32 32 32 32 64 250 250 250 250 381 381 228 228 68 68 92 92 92
 92 150 150 150 311 311 311 386 386 386 317 317 317 317 64 64 64 250 250 250
 250 250 381 228 68 68 68 92 92 92 92 92 150 150 311 386 386 386 386 386
 317 317 317 317 64 208 250 250 250 250 250 250 381 381 68 68 68 367 367 92
 275 275 30 30 97 386 386 386 18 18 18 317 317 317 208 208 250 250 250 250
 250 250 2 2 2 68 178 367 178 178 30 30 30 30 97 97 97 18 18 18
 18 18 157 208 208 208 208 250 250 250 250 250 2 2 2 178 178 178 178 178
 30 30 30 30 97 97 97 18 18 18 18 18 157 157 208 208 208 250 250 250
 250 2 2 2 2 178 178 178 178 178 328 30 30 30 97 216 216 216 372 372
 18 157 157 157 296 320 320 250 250 250 250 252 252 252 252 175 175 175 175 328
 328 328 328 328 216 216 216 216 216 372 372 157 157 22 320 320 320 320 320 320
 252 252 252 252 252 252 175 175 328 328 328 328 25 364 364 364 216 216 216 372
 372 22 22 22 320 320 320 320 320 320 320 252 252 252 252 252 175 175 328 328
 328 328 25 364 364 364 364 364 364 104 22 22 22 22 22 320 320 320 320 320
 320 252 252 252 252 252 252 328 328 328 193 193 364 364 364 364 364 364 364 104
 22 22 22 22 22 320 320 320 320 320 320 252 252 252 252 252 252 328 328 193
 193 193 364 364 364 364 364 364 364 285 22 22 22 22 22 320 320 320 320 320
 320 252 252 252 252 252 252 193 193 193 379 379 364 364 364 364 364 364 285 285
 16 16 16 16 16 16 320 320 320 320 320 320 252 252 252 368 368 368 193 193
 105 105 105 394 394 394 394 285 285 285 285 16 16 16 16 16 320 320 320 167
 167 315 315 315 315 315 368 105 105 105 105 105 105 394 394 394 394 88 88 285
 285 16 16 16 16 16 320 320 167 167 167 315 315 315 315 315 105 105 105 105
 105 105 105 105 394 394 394 88 88 88 88 16 16 16 16 363 363 363 363 363
 315 315 315 315 315 315 105 105 105 105 105 105 105 159 159 159 88 88 88 88
 290 290 16 16 363 363 363 363 363 363 223 315 315 315 315 105 105 105 105 105
 105 105 105 159 159 159 159 88 88 290 290 290 350 8 363 363 363 363 363 363
 223 223 223 13 13 149 149 149 105 105 105 105 105 159 159 159 159 159 290 290
 290 290 350 350 363 363 363 363 363 363 223 223 223 13 13 149 149 149 149 105
 105 98 98 159 159 159 159 159 290 290 290 350 350 350 363 363 363 363 363 363
 223 223 223 13 13 213 149 149 149 105 98 98 98 98 34 34 34 159 290 290
 290 350 350 40 40 363 363 363 363 363 223 223 223 13 213 213 213 213 213 98
 98 98 98 98 98 34 34 225 225 225 225 40 40 40 40 40 297 297 297 297
 209 223 223 240 213 213 213 213 213 98 98 98 98 98 98 34 24 24 225 225
 225 40 40 40 40 40 297 297 297 297 297 164 164 240 240 213 213 213 98 98
 98 98 98 98 98 67 24 24 24 225 225 40 40 40 40 40 297 297 297 297
 211 211 211 164 333 333 333 333 98 98 98 98 98 98 67 67 24 24 24 24
 225 40 40 129 40 243 243 297 297 211 211 211 211 211 333 333 333 333 333 98
 98 98 98 67 67 67 67 24 24 24 177 177 177 129 129 243 340 340 340 211
 211 211 211 211 333 333 333 333 333 98 98 98 67 67 67 67 67 67 99 99
 177 177 177 32 32 32 340 340 340 211 211 211 211 211 219 333 333 333 333 333
 92 150 67 67 67 67 67 67 99 99 99 121 32 32 32 32 340 340 340 211
 211 211 211 211 219 219 219 333 357 92 92 150 150 67 67 67 67 99 99 99