# vtk DataFile Version 2.0
Data set from ImportExport Version 6.5.141.ec284b7a5
ASCII

DATASET RECTILINEAR_GRID
DIMENSIONS 26 26 26
X_COORDINATES 26 float
-3.000000 3.000000 9.000000 15.000000 21.000000 27.000000 33.000000 39.000000 45.000000 51.000000 57.000000 63.000000 69.000000 75.000000 81.000000 87.000000 93.000000 99.000000 105.000000 111.000000 117.000000 
123.000000 129.000000 135.000000 141.000000 147.000000 
Y_COORDINATES 26 float
-3.000000 3.000000 9.000000 15.000000 21.000000 27.000000 33.000000 39.000000 45.000000 51.000000 57.000000 63.000000 69.000000 75.000000 81.000000 87.000000 93.000000 99.000000 105.000000 111.000000 117.000000 
123.000000 129.000000 135.000000 141.000000 147.000000 
Z_COORDINATES 26 float
-3.000000 3.000000 9.000000 15.000000 21.000000 27.000000 33.000000 39.000000 45.000000 51.000000 57.000000 63.000000 69.000000 75.000000 81.000000 87.000000 93.000000 99.000000 105.000000 111.000000 117.000000 
123.000000 129.000000 135.000000 141.000000 147.000000 
CELL_DATA 15625
SCALARS FeatureIds int 1
LOOKUP_TABLE default
 98 98 85 85 42 42 42 42 42 23 23 23 17 17 17 17 92 12 12 12
 12 79 79 98 98 98 98 98 98 42 42 42 42 42 23 23 23 17 17 17
 17 17 12 12 12 79 79 79 98 98 98 98 98 98 42 42 42 42 42 23
 23 23 17 17 17 17 17 12 12 12 79 79 79 98 98 98 98 56 56 42
 42 42 42 42 23 23 23 23 17 17 102 102 102 12 79 79 79 79 79 79
 79 56 56 56 56 42 42 42 42 23 23 23 23 102 102 102 102 102 102 79
 79 79 79 79 79 79 56 56 56 56 56 42 42 42 23 23 102 102 102 102
 102 102 102 102 79 79 79 79 79 79 79 56 56 56 56 56 56 42 42 23
 102 102 102 102 102 102 102 102 79 79 79 79 79 79 79 79 56 56 56 56
 56 56 56 99 102 102 102 102 102 102 102 102 102 79 79 79 79 79 79 79
 79 79 56 56 56 56 56 99 99 102 102 102 102 102 102 102 102 102 102 79
 79 79 79 79 79 79 79 56 56 56 56 99 99 99 99 102 102 102 102 102
 102 102 102 102 79 79 79 79 79 79 79 79 13 13 13 13 99 99 99 99
 99 102 102 102 102 102 102 102 102 79 79 79 79 79 79 79 13 13 13 13
 13 99 99 99 99 99 102 102 102 102 102 102 102 79 79 79 79 79 79 79
 79 13 13 13 13 13 99 99 99 99 99 99 102 102 35 35 35 35 84 84
 84 79 79 79 79 79 13 13 13 13 13 99 99 99 99 99 99 102 35 35
 35 35 35 84 84 84 84 84 84 79 79 13 13 13 13 99 99 99 99 99
 99 97 97 97 35 35 35 35 84 84 84 84 84 84 84 79 13 13 68 13
 99 99 99 99 99 97 97 97 97 97 97 97 97 84 84 84 84 84 84 84
 79 68 68 68 68 86 86 86 86 97 97 97 97 97 97 97 97 97 84 84
 84 84 84 84 84 68 68 68 68 68 86 86 86 86 97 97 97 97 97 97
 97 97 97 84 84 82 82 82 84 84 77 85 85 68 85 86 86 86 86 86
 97 97 97 97 97 97 97 97 12 96 82 82 82 84 84 77 85 85 85 85
 86 86 86 86 86 97 97 97 97 97 97 97 12 12 96 96 96 96 77 77
 77 85 85 85 85 86 86 86 86 86 97 97 97 97 97 97 12 12 12 96
 96 96 77 77 77 77 85 85 85 85 85 86 86 86 86 97 97 97 97 97
 12 12 12 12 96 96 96 77 77 77 77 85 85 85 85 85 86 86 86 86
 97 97 97 97 12 12 12 12 12 96 96 96 77 77 77 85 85 85 85 85
 85 85 86 86 86 26 97 97 92 92 12 12 12 12 96 96 96 77 77 77
 85 85 85 85 85 85 85 86 86 26 26 26 26 92 92 92 12 12 12 96
 96 96 77 77 77 98 98 85 85 85 42 42 42 51 26 26 26 26 17 17
 17 92 12 12 12 12 12 98 98 98 98 98 98 98 42 42 42 42 42 23
 26 17 17 17 17 17 70 70 70 70 59 79 98 98 98 98 98 98 98 42
 42 42 42 42 23 26 26 26 17 17 17 70 70 70 70 59 79 98 98 98
 98 98 98 98 56 42 42 42 42 23 23 23 26 17 17 17 70 70 70 59
 59 79 79 79 79 98 98 56 56 56 56 42 42 42 23 23 23 102 102 102
 102 102 102 102 59 59 79 79 79 79 79 56 56 56 56 56 42 42 42 23
 102 102 102 102 102 102 102 102 102 79 79 79 79 79 79 79 56 56 56 56
 56 56 56 42 102 102 102 102 102 102 102 102 102 79 79 79 79 79 79 79
 79 56 56 56 56 56 56 56 99 102 102 102 102 102 102 102 102 102 79 79
 79 79 79 79 79 79 79 56 56 56 56 56 56 99 102 102 102 102 102 102
 102 102 102 102 79 79 79 79 79 79 79 79 56 56 56 56 56 99 99 102
 102 102 102 102 102 102 102 102 102 79 79 79 79 79 79 79 79 13 13 13
 13 13 99 99 99 102 102 102 102 102 102 102 102 102 79 79 79 79 79 79
 79 13 13 13 13 13 13 99 99 99 102 102 102 102 102 102 102 102 79 79
 79 79 79 79 79 79 13 13 13 13 13 99 99 99 99 58 102 102 102 102
 102 102 35 84 84 84 79 79 79 79 79 13 13 13 13 13 99 99 99 58
 58 58 58 102 102 35 35 35 84 84 84 84 84 84 79 79 13 13 13 13
 13 99 99 99 58 58 58 97 97 97 97 97 97 84 84 84 84 84 84 84
 79 13 68 68 68 86 86 86 99 58 97 97 97 97 97 97 97 97 84 84
 84 84 84 84 84 68 68 68 68 68 86 86 86 86 97 97 97 97 97 97
 97 97 97 84 84 84 84 84 84 84 68 68 68 68 68 86 86 86 86 86
 97 97 97 97 97 97 97 97 84 84 82 82 82 84 84 77 85 85 68 85
 86 86 86 86 86 97 97 97 97 97 97 97 12 12 82 82 82 82 84 84
 77 85 85 85 85 86 86 86 86 86 97 97 97 97 97 97 12 12 12 12
 82 82 77 77 77 77 85 85 85 85 86 86 86 86 86 97 97 97 97 97
 12 12 12 12 12 96 77 77 77 77 77 85 85 85 85 85 86 86 86 86
 97 97 97 97 12 12 12 12 12 12 12 77 77 77 77 77 85 85 85 85
 85 85 86 86 86 97 97 97 97 12 12 12 12 12 12 12 77 77 77 77
 85 85 85 85 85 85 85 86 86 86 26 26 92 92 92 92 12 12 12 12
 12 77 77 77 77 85 85 85 85 85 85 85 86 86 26 26 26 26 92 92
 92 12 12 12 12 12 77 77 77 77 98 98 85 85 85 85 3 3 51 51
 26 26 26 26 92 92 92 12 12 12 12 59 98 98 98 98 98 98 98 98
 42 3 3 51 51 26 26 26 17 17 70 70 70 70 70 59 59 59 98 98
 98 98 98 98 98 42 3 3 51 51 26 26 26 26 17 70 70 70 70 59
 59 59 59 98 98 98 98 98 98 98 42 42 42 42 26 26 26 26 26 70
 70 70 70 59 59 59 59 59 98 98 98 98 98 56 56 56 42 42 42 23
 26 26 26 102 102 102 102 59 59 59 59 59 59 79 98 79 56 56 56 56
 56 56 1 1 23 102 102 102 102 102 102 102 102 59 59 59 59 79 79 79
 79 56 56 56 56 56 56 56 56 102 102 102 102 102 102 102 102 102 59 59
 59 79 79 79 79 79 56 56 56 56 56 56 56 102 102 102 102 102 102 102
 102 102 102 79 79 79 79 79 79 79 79 79 56 56 56 56 56 56 102 102
 102 102 102 102 102 102 102 102 102 79 79 79 79 79 79 79 79 56 56 56
 56 56 99 99 102 102 102 102 102 102 102 102 102 102 79 79 79 79 79 79
 79 79 13 13 13 13 13 99 58 58 102 102 102 102 102 102 102 102 102 79
 79 79 79 79 79 79 13 13 13 13 13 13 58 58 58 58 102 102 102 102
 102 102 102 102 79 79 79 79 79 79 79 13 13 13 13 13 13 58 58 58
 58 58 58 102 102 102 102 84 84 84 84 79 79 79 79 79 13 13 13 13
 13 58 58 58 58 58 58 58 58 58 58 35 84 84 84 84 84 84 84 79
 79 13 13 13 13 13 58 58 58 58 58 58 58 97 97 97 97 97 84 84
 84 84 84 84 84 79 62 13 68 13 86 86 58 58 58 58 97 97 97 97
 97 97 97 84 84 84 84 84 84 84 62 62 68 68 68 86 86 86 86 58
 97 97 97 97 97 97 97 97 84 84 84 84 84 84 84 62 85 68 68 68
 86 86 86 86 97 97 97 97 97 97 97 97 97 84 84 82 82 82 84 84
 85 85 85 85 85 86 86 86 86 86 97 97 97 97 97 97 97 12 12 12
 82 82 82 84 84 85 85 85 85 85 86 86 86 86 86 97 97 97 97 97
 97 12 12 12 12 12 82 77 77 77 85 85 85 85 85 85 86 86 86 86
 97 97 97 97 97 12 12 12 12 12 12 77 77 77 77 85 85 85 85 85
 85 86 86 86 86 97 97 97 97 12 12 12 12 12 12 12 77 77 77 77
 85 85 85 85 85 85 85 86 86 86 97 97 97 92 92 92 12 12 12 12
 12 77 77 77 77 85 85 85 85 85 85 85 86 86 26 26 26 92 92 92
 92 92 12 12 12 12 77 77 77 77 85 85 85 85 85 85 85 86 26 26
 26 26 26 92 92 92 92 12 12 12 12 77 77 77 77 98 85 85 85 85
 85 3 3 51 51 26 26 26 26 70 70 70 70 70 70 59 59 6 6 6
 98 98 98 98 85 85 3 3 51 51 26 26 26 26 70 70 70 70 70 70
 59 59 59 98 98 98 98 98 98 98 98 3 3 51 51 26 26 26 26 70
 70 70 70 70 59 59 59 59 98 98 98 98 98 98 98 98 3 3 51 26
 26 26 26 70 70 70 70 70 59 59 59 59 59 59 98 98 98 98 98 56
 56 1 1 1 26 26 26 26 70 70 70 70 59 59 59 59 59 59 59 98
 98 98 56 56 56 56 1 1 1 1 102 102 102 102 102 102 102 59 59 59
 59 59 59 79 79 79 56 56 56 56 56 56 1 1 102 102 102 102 102 102
 102 102 59 59 59 59 59 59 79 79 79 56 56 56 56 56 56 56 102 102
 102 102 102 102 102 102 102 59 59 59 59 79 79 79 79 79 79 56 56 56
 56 56 56 87 102 102 102 102 102 102 102 102 102 59 59 79 79 79 79 79
 79 79 56 56 56 56 56 87 87 87 102 102 102 102 102 102 102 102 79 79
 79 79 79 79 79 79 79 13 13 13 13 13 58 58 58 58 102 102 102 102
 102 102 102 79 79 79 79 79 79 79 79 79 13 13 13 13 13 58 58 58
 58 58 58 102 102 102 102 102 79 79 79 79 79 79 79 79 13 13 13 13
 13 13 58 58 58 58 58 58 58 58 102 102 102 84 79 79 79 79 79 79
 79 13 13 13 13 13 58 58 58 58 58 58 58 58 58 58 58 84 84 84
 84 84 84 79 79 79 62 13 13 13 13 58 58 58 58 58 58 58 58 58
 58 97 84 84 84 84 84 84 84 84 62 62 62 13 85 58 58 58 58 58
 58 58 58 97 97 97 97 97 84 84 84 84 84 84 84 62 62 62 85 85
 86 86 58 58 58 58 97 97 97 97 97 97 97 84 84 84 84 84 84 84
 62 62 62 85 85 86 86 86 86 58 97 97 97 97 97 97 97 12 12 84
 84 84 84 84 84 85 85 85 85 85 85 86 86 86 86 97 97 97 97 97
 97 12 12 12 12 84 82 84 84 84 85 85 85 85 85 85 86 86 86 86
 97 97 97 97 97 12 12 12 12 12 12 82 77 77 77 85 85 85 85 85
 85 86 86 86 86 97 97 97 97 97 12 12 12 12 12 12 77 77 77 77
 85 85 85 85 85 85 85 86 86 86 9 97 57 57 12 12 12 12 12 12
 12 77 77 77 77 85 85 85 85 85 85 85 86 86 9 9 9 57 92 92
 92 12 12 12 12 12 77 77 77 77 85 85 85 85 85 85 85 85 86 9
 26 26 92 92 92 92 92 12 12 12 12 12 77 77 77 85 85 85 85 85
 85 85 85 26 26 26 26 26 92 92 92 92 12 12 12 12 12 77 77 77
 6 6 6 6 85 85 3 3 51 51 26 26 26 70 70 70 70 70 70 70
 59 59 6 6 6 6 6 6 6 6 6 3 3 51 51 26 26 26 70 70
 70 70 70 70 59 59 59 59 6 6 98 98 98 6 6 6 3 3 51 51
 26 26 26 70 70 70 70 70 70 59 59 59 59 98 98 98 98 98 98 98
 1 1 1 51 26 26 26 26 70 70 70 70 70 59 59 59 59 59 59 98
 98 98 98 98 98 1 1 1 1 1 26 26 26 70 70 70 70 59 59 59
 59 59 59 59 98 98 98 98 56 56 1 1 1 1 1 1 72 72 102 54
 54 59 59 59 59 59 59 59 59 79 79 56 56 56 56 56 1 1 1 1
 72 72 72 102 102 102 59 59 59 59 59 59 59 59 79 79 79 56 56 56
 56 1 1 1 102 72 72 72 102 102 102 102 59 59 59 59 59 59 79 79
 79 79 56 56 56 56 56 87 87 87 87 72 102 102 102 102 102 59 59 59
 59 59 79 79 79 79 79 56 56 56 56 56 87 87 87 87 102 102 102 102
 102 102 104 104 104 79 79 79 79 79 79 79 13 13 13 13 58 58 87 87
 87 102 102 102 102 102 102 104 104 104 79 79 79 79 79 79 79 13 13 13
 13 58 58 58 58 58 58 58 58 58 58 58 104 104 104 79 79 79 79 79
 79 13 13 13 13 13 58 58 58 58 58 58 58 58 58 58 58 58 104 104
 79 79 79 79 79 79 13 13 13 18 18 58 58 58 58 58 58 58 58 58
 58 58 84 84 84 84 84 84 79 79 62 62 62 13 89 18 58 58 58 58
 58 58 58 58 58 58 58 84 84 84 84 84 84 84 84 62 62 62 89 89
 89 58 58 58 58 58 58 58 58 58 58 97 97 84 84 84 84 84 84 84
 62 62 62 62 89 89 58 58 58 58 58 58 58 58 97 97 97 97 84 84
 84 84 84 84 84 62 62 62 62 85 85 86 86 58 58 58 58 97 97 97
 97 97 12 12 84 84 84 84 84 62 62 62 85 85 85 85 85 86 86 86
 97 97 97 97 97 97 12 12 12 12 84 82 84 84 62 85 85 85 85 85
 85 85 86 86 9 9 97 97 97 97 12 12 12 12 12 12 12 77 77 77
 85 85 85 85 85 85 85 86 86 9 9 9 57 57 57 12 12 12 12 12
 12 12 77 77 77 85 85 85 85 85 85 85 86 86 9 9 9 57 57 57
 12 12 12 12 12 12 12 77 77 77 85 85 85 85 85 85 85 85 9 9
 9 9 57 57 92 92 12 12 12 12 12 12 77 77 77 85 85 85 85 85
 85 85 85 9 9 9 9 92 92 92 92 92 12 12 12 12 12 77 77 77
 6 6 85 85 85 85 85 85 26 26 26 26 26 92 92 92 92 12 12 12
 12 12 77 6 6 6 6 6 6 6 6 3 3 51 26 26 26 26 70 70
 70 70 70 70 70 59 59 6 6 6 6 6 6 6 6 6 3 3 51 26
 26 26 26 70 70 70 70 70 70 70 59 59 6 6 6 6 6 6 6 6
 6 6 3 51 26 26 26 26 70 70 70 70 70 70 59 59 59 59 6 6
 7 7 7 7 7 1 1 1 1 20 20 20 20 70 70 70 70 70 59 59
 59 59 59 59 7 7 7 7 7 7 1 1 1 1 1 20 20 20 54 54
 54 54 59 59 59 59 59 59 59 7 7 7 7 7 1 1 1 1 1 1
 1 20 72 54 54 54 54 59 59 59 59 59 59 59 7 7 56 56 56 56
 1 1 1 1 1 72 72 72 5 54 54 54 59 59 59 59 59 59 59 79
 79 79 56 56 56 56 1 1 1 72 72 72 72 5 5 5 5 59 59 59
 59 59 59 59 79 79 79 56 56 18 18 18 87 87 87 87 72 5 5 5
 5 5 104 104 104 59 59 59 79 79 79 79 18 18 18 18 18 87 87 87
 87 72 5 5 5 5 5 104 104 104 104 104 79 79 79 79 79 18 18 18
 18 18 58 87 87 87 102 5 5 5 5 5 104 104 104 104 104 79 79 79
 79 79 18 18 18 18 18 58 58 58 58 58 58 58 5 5 5 104 104 104
 104 104 79 79 79 79 18 18 18 18 18 18 58 58 58 58 58 58 58 58
 58 58 104 37 37 37 79 79 79 79 79 18 18 18 18 18 58 58 58 58
 58 58 58 58 58 58 58 58 37 37 37 84 84 79 79 62 62 89 89 89
 18 58 58 58 58 58 58 58 58 58 58 58 58 37 37 84 84 84 84 84
 62 62 89 89 89 89 58 58 58 58 58 58 58 58 58 58 58 58 84 84
 84 84 84 84 62 62 62 62 89 89 89 58 58 58 58 58 58 58 58 58
 58 97 97 84 84 84 84 84 84 62 62 62 62 62 89 89 86 58 58 58
 58 58 58 58 97 97 97 12 12 22 84 84 84 62 62 62 62 62 85 85
 85 85 86 86 9 9 9 97 97 97 97 12 12 12 22 22 22 84 62 62
 62 85 85 85 85 85 85 86 86 9 9 9 9 57 57 12 12 12 12 22
 22 22 22 62 62 85 85 85 85 85 85 85 86 86 9 9 9 57 57 57
 12 12 12 12 12 12 12 77 77 77 85 85 85 85 85 85 85 85 86 9
 9 9 57 57 57 12 12 12 12 12 12 12 77 77 77 85 85 85 85 85
 85 85 85 9 9 9 9 57 57 57 12 12 12 12 12 12 12 77 77 6
 6 85 85 85 85 85 85 85 9 9 9 9 9 57 92 92 12 12 12 12
 12 12 6 6 6 6 6 6 85 85 85 85 85 9 9 9 9 9 92 70
 70 70 70 12 12 12 12 6 6 6 6 6 6 6 6 6 6 76 51 26
 26 26 26 70 70 70 70 70 70 31 31 31 6 6 6 6 6 6 6 6
 6 50 50 50 26 20 20 20 70 70 70 70 70 70 59 59 59 6 6 6
 6 6 6 6 6 6 50 50 50 20 20 20 20 70 70 70 70 70 59 59
 59 59 59 6 6 7 7 7 7 7 7 1 1 1 20 20 20 20 70 70
 70 70 70 59 59 59 59 59 7 7 7 7 7 7 7 1 1 1 1 1
 20 20 20 54 54 54 54 54 59 59 59 59 59 59 7 7 7 7 7 7
 1 1 1 1 1 20 20 20 54 54 54 54 54 59 59 59 59 59 59 7
 7 7 7 7 7 1 1 1 1 1 72 72 5 5 54 54 54 59 59 59
 59 59 59 59 7 7 7 18 18 18 18 1 1 1 72 72 72 5 5 5
 5 54 104 104 59 59 59 59 59 79 79 18 18 18 18 18 18 18 87 87
 32 32 5 5 5 5 5 104 104 104 104 104 104 79 79 79 18 18 18 18
 18 18 18 87 87 32 32 5 5 5 5 5 104 104 104 104 104 104 79 79
 79 18 18 18 18 18 18 18 87 87 32 32 5 5 5 5 5 104 104 104
 104 104 104 79 79 79 18 18 18 18 18 18 18 58 58 58 58 5 5 5
 5 5 104 104 104 104 104 104 79 79 18 18 18 18 18 18 18 58 58 58
 58 58 58 58 58 58 5 104 37 37 37 104 104 79 79 18 18 18 18 18
 18 18 58 58 58 58 58 58 58 58 58 58 37 37 37 37 37 37 79 21
 89 89 89 89 89 18 18 58 58 58 58 58 58 58 58 58 58 37 37 37
 37 37 84 84 21 89 89 89 89 89 89 89 58 58 58 58 58 58 58 58
 58 58 37 37 37 37 37 84 84 62 62 62 89 89 89 89 89 58 58 58
 58 58 58 58 58 58 58 58 22 22 22 84 84 62 62 62 62 62 89 89
 89 89 58 58 58 58 58 58 58 58 58 58 12 22 22 22 22 84 62 62
 62 62 89 89 89 85 85 9 9 9 9 9 9 9 97 97 12 12 22 22
 22 22 22 62 62 89 89 89 89 85 85 85 9 9 9 9 9 9 9 57
 12 12 12 22 22 22 22 22 89 89 85 85 85 85 85 85 85 9 9 9
 9 9 9 57 57 12 12 12 22 22 22 22 22 89 89 85 85 85 85 85
 85 85 9 9 9 9 9 9 57 57 57 12 12 12 12 12 12 22 6 6
 85 85 85 85 85 85 85 85 9 9 9 9 9 57 57 12 12 12 12 12
 12 12 6 6 6 6 6 6 85 85 85 85 9 9 9 9 9 9 9 57
 12 12 12 12 12 31 31 6 6 6 6 6 6 6 85 85 85 9 9 9
 9 9 9 9 70 70 70 70 12 31 31 31 6 6 6 6 6 6 6 6
 6 76 76 76 50 20 20 20 70 70 70 70 70 31 31 31 31 6 6 6
 6 6 6 6 6 6 50 50 50 50 20 20 20 70 70 70 70 70 31 31
 31 53 6 6 6 6 6 6 6 6 50 50 50 50 50 20 20 20 70 70
 70 70 70 70 59 59 59 6 6 6 7 7 7 7 7 50 50 50 50 20
 20 20 20 20 54 54 54 54 59 59 59 59 59 7 7 7 7 7 7 7
 50 50 50 50 20 20 20 20 54 54 54 54 54 59 59 59 59 59 7 7
 7 7 7 7 7 1 1 83 83 1 20 20 20 54 54 54 54 54 59 59
 59 59 59 59 7 7 7 7 7 18 18 1 83 83 83 5 5 5 5 54
 54 54 54 59 59 59 59 59 59 7 7 7 18 18 18 18 18 18 83 5
 5 5 5 5 5 5 54 104 104 104 104 59 59 59 79 18 18 18 18 18
 18 18 18 18 32 32 32 5 5 5 5 5 104 104 104 104 104 104 104 79
 18 18 18 18 18 18 18 18 18 32 32 32 5 5 5 5 5 104 104 104
 104 104 104 104 79 18 18 18 18 18 18 18 18 58 58 32 32 5 5 5
 5 5 104 104 104 104 104 104 104 79 18 18 18 18 18 18 18 18 58 58
 58 58 5 5 5 5 5 104 104 104 104 104 104 104 79 18 18 18 18 18
 18 18 18 58 58 58 58 58 58 58 5 5 104 37 37 37 104 104 21 21
 18 18 18 18 18 18 18 18 58 58 58 58 58 58 58 58 58 37 37 37
 37 37 37 21 21 89 89 89 89 89 18 18 58 58 58 58 58 58 58 58
 58 58 37 37 37 37 37 37 21 21 89 89 89 89 89 89 89 58 58 58
 58 58 58 58 58 58 58 37 37 37 37 37 37 21 21 89 89 89 89 89
 89 89 58 58 58 58 58 58 58 58 58 58 22 22 37 37 37 37 89 89
 89 89 89 89 89 89 89 58 58 58 58 58 58 58 58 58 22 22 22 22
 22 22 22 89 89 89 89 89 89 89 89 89 89 9 9 9 9 9 9 9
 22 22 22 22 22 22 22 22 89 89 89 89 89 89 89 89 89 89 9 9
 9 9 9 9 9 12 12 22 22 22 22 22 22 89 89 89 89 89 89 89
 89 89 9 9 9 9 9 9 9 57 12 12 22 22 22 22 22 22 89 89
 89 85 85 85 85 85 85 9 9 9 9 9 9 9 57 57 12 22 22 22
 22 22 22 89 89 6 85 85 85 85 85 85 9 9 9 9 9 9 9 57
 12 12 31 31 31 31 31 31 6 6 6 6 6 6 85 85 85 9 9 9
 9 9 9 9 9 70 31 31 31 31 31 31 6 6 6 6 6 6 6 6
 6 6 9 9 9 9 9 9 9 70 70 70 31 31 31 31 31 6 6 6
 6 6 6 6 6 6 76 76 76 50 20 20 20 70 70 70 70 31 31 31
 31 31 53 6 6 6 6 6 6 6 6 76 76 50 50 20 20 20 70 70
 70 70 31 31 31 31 53 53 6 6 6 6 6 6 6 50 50 50 50 50
 20 20 20 25 25 25 25 25 31 31 53 53 53 6 6 7 7 7 7 7
 50 50 50 50 50 20 20 20 25 25 25 25 25 59 59 59 59 59 7 7
 7 7 7 7 7 50 50 50 50 50 20 20 20 54 54 54 54 54 59 59
 59 59 59 7 7 7 7 7 7 7 50 50 83 83 50 20 20 20 54 54
 54 54 54 59 59 59 59 59 59 7 7 7 7 7 18 83 83 83 83 83
 5 5 5 5 54 54 54 54 104 104 59 59 59 59 7 7 18 18 18 18
 18 18 18 83 83 5 5 5 5 5 5 5 104 104 104 104 104 104 104 94
 18 18 18 18 18 18 18 18 18 32 32 5 5 5 5 5 5 104 104 104
 104 104 104 104 94 18 18 18 18 18 18 18 18 18 32 32 32 5 5 5
 5 5 104 104 104 104 104 104 104 69 18 18 18 18 18 18 18 18 18 58
 32 32 5 5 5 5 5 104 104 104 104 104 104 104 69 18 18 18 18 18
 18 18 18 18 58 58 58 5 5 5 5 5 104 104 104 104 104 104 21 69
 18 18 18 18 18 18 18 18 18 58 58 58 58 58 5 5 5 104 37 37
 37 104 21 21 21 18 18 18 18 18 18 18 18 58 58 58 58 58 58 58
 58 58 37 37 37 37 37 21 21 21 89 89 89 89 89 18 18 18 58 58
 58 58 58 58 58 58 58 37 37 37 37 37 21 21 21 89 89 89 89 89
 89 89 89 58 58 58 58 58 58 58 58 58 37 37 37 37 37 21 21 21
 89 89 89 89 89 89 89 89 58 58 58 58 58 58 58 58 58 41 41 37
 41 41 37 89 89 89 89 89 89 89 89 89 89 89 58 58 58 58 58 58
 58 41 41 41 41 41 41 22 89 89 89 89 89 89 89 89 89 89 9 9
 9 9 9 9 9 41 41 41 41 41 41 41 41 89 89 89 89 89 89 89
 89 89 89 9 9 9 9 9 9 9 9 41 41 41 41 41 41 41 89 89
 89 89 89 89 89 89 89 45 45 9 9 9 9 9 9 9 41 41 41 41
 41 41 41 89 89 89 89 89 89 89 89 89 45 45 45 9 9 9 9 9
 9 31 31 31 31 31 31 31 89 89 6 44 44 44 44 44 44 45 45 9
 9 9 9 9 9 31 31 31 31 31 31 31 31 6 6 6 6 44 44 44
 44 44 9 9 9 9 9 9 9 9 31 31 31 31 31 31 31 31 6 6
 6 6 6 44 44 44 44 9 9 9 9 9 9 9 9 70 31 31 31 31
 31 31 31 6 6 6 6 6 44 44 44 76 76 76 76 76 20 20 25 25
 70 31 31 31 31 31 53 53 6 6 6 6 6 6 44 44 76 76 76 50
 50 20 20 25 25 25 25 31 31 31 53 53 53 6 6 6 6 6 6 6
 50 50 50 50 50 50 20 20 25 25 25 25 25 31 31 53 53 53 6 6
 7 7 7 7 7 50 50 50 50 50 20 20 20 25 25 25 25 25 31 31
 53 53 53 7 7 7 7 7 7 7 50 50 50 50 50 20 20 20 25 25
 25 25 25 25 59 59 59 59 7 7 7 7 7 7 50 50 50 83 83 50
 20 20 5 54 54 54 54 54 59 59 59 59 94 94 7 7 7 18 18 18
 50 83 83 83 83 5 5 5 5 5 54 54 54 104 104 104 94 94 94 94
 94 18 18 18 18 18 18 18 18 18 5 5 5 5 5 5 5 104 104 104
 104 104 94 94 94 18 18 18 18 18 18 18 18 18 18 5 5 5 5 5
 5 5 104 104 104 104 104 94 94 94 69 18 18 18 18 18 18 18 18 32
 5 5 5 5 5 5 5 104 104 104 104 104 69 69 69 69 18 18 18 18
 18 18 18 18 58 5 5 5 5 5 5 5 104 104 104 104 104 69 69 69
 69 18 18 18 18 18 18 18 18 58 58 5 5 5 5 5 5 104 104 104
 104 69 69 69 69 69 18 18 18 18 18 18 18 18 52 58 58 58 5 5
 5 5 104 37 37 69 69 21 21 21 69 18 18 18 18 18 18 18 52 52
 52 58 58 58 58 58 80 95 37 37 37 69 21 21 21 89 89 89 89 89
 18 18 18 52 52 58 58 58 58 58 58 80 95 37 37 37 21 21 21 21
 89 89 89 89 89 89 89 89 58 58 58 58 58 58 58 80 80 80 37 37
 37 21 21 21 21 89 89 89 89 89 89 89 89 89 58 58 58 58 58 58
 80 80 80 41 41 41 41 21 89 89 89 89 89 89 89 89 89 89 89 58
 9 58 58 55 80 80 80 41 41 41 41 41 41 89 89 89 89 89 89 89
 89 89 89 89 9 9 9 9 55 55 55 41 41 41 41 41 41 41 89 89
 89 89 89 89 89 89 89 89 9 9 9 9 9 55 55 55 41 41 41 41
 41 41 41 89 89 89 89 89 89 89 89 89 45 45 45 9 9 9 9 55
 55 41 41 41 41 41 41 41 89 89 89 89 44 44 44 44 44 45 45 45
 9 9 9 9 9 31 31 31 31 31 31 31 31 31 89 44 44 44 44 44
 44 44 45 45 45 9 9 9 9 9 31 31 31 31 31 31 31 31 31 6
 6 44 44 44 44 44 44 45 45 9 9 9 9 9 9 31 31 31 31 31
 31 31 31 31 6 6 6 44 44 44 44 44 44 45 9 9 9 9 9 9
 31 31 31 31 31 31 31 31 6 6 6 6 44 44 44 44 76 76 76 60
 60 60 60 25 25 31 31 31 31 31 31 31 31 6 6 6 6 6 44 44
 44 50 76 76 50 60 60 78 25 25 25 25 31 31 31 31 53 53 6 6
 6 6 6 6 44 50 50 50 50 50 60 78 78 25 25 25 25 25 31 31
 31 53 53 6 6 6 6 6 6 50 50 50 50 50 50 50 78 78 78 25
 25 25 25 31 31 31 53 53 7 7 7 7 7 7 50 50 50 50 50 50
 78 78 78 78 25 25 25 25 25 59 59 94 94 94 7 7 7 7 7 50
 50 83 83 50 78 78 78 78 78 78 25 25 78 78 59 94 94 94 94 94
 94 94 18 18 18 50 83 83 83 78 78 78 78 78 78 78 78 78 104 104
 94 94 94 94 94 94 94 18 18 18 18 18 18 18 18 5 5 5 5 5
 5 78 104 104 104 104 94 94 94 94 94 18 18 18 18 18 18 18 18 18
 5 5 5 5 5 5 5 104 104 104 104 94 94 94 94 69 18 18 18 18
 18 18 18 18 18 5 5 5 5 5 5 5 104 104 104 104 69 69 69 69
 69 18 18 18 18 18 18 18 18 18 5 5 5 5 5 5 5 104 104 104
 69 69 69 69 69 69 18 18 18 18 18 18 18 18 52 52 5 5 5 5
 5 95 95 104 104 69 69 69 69 69 69 69 18 18 18 18 18 18 52 52
 52 52 58 5 5 80 95 95 95 69 69 69 69 69 69 69 69 18 18 18
 18 18 18 52 52 52 52 58 80 80 80 80 95 95 95 69 69 69 21 69
 69 89 89 89 89 18 18 52 52 52 52 52 58 80 80 80 80 95 95 37
 48 48 48 21 69 89 89 89 89 89 89 89 89 52 52 52 52 80 80 80
 80 80 80 80 37 48 48 48 21 69 89 89 89 89 89 89 89 89 47 47
 52 58 80 80 80 80 80 80 80 41 41 41 48 21 89 89 89 89 89 89
 89 89 47 47 47 9 58 55 55 80 80 80 80 41 41 41 41 41 89 89
 89 89 89 89 89 89 89 47 47 47 9 9 55 55 55 55 80 41 41 41
 41 41 41 89 89 89 89 89 89 89 89 89 47 47 47 9 9 55 55 55
 55 55 41 41 41 41 41 41 89 89 89 89 89 89 89 89 89 45 45 45
 9 9 55 55 55 55 31 31 41 41 41 31 31 89 89 89 89 44 44 44
 44 44 45 45 45 9 9 9 55 55 55 31 31 31 31 31 31 31 31 89
 44 44 44 44 44 44 44 44 45 45 9 9 9 9 55 31 31 31 31 31
 31 31 31 31 31 44 44 44 44 44 44 44 44 91 91 9 9 9 9 9
 31 31 31 31 31 31 31 31 31 6 44 44 44 44 44 44 44 44 91 91
 91 9 9 9 31 31 31 31 31 31 31 31 31 31 6 6 44 44 44 44
 44 44 60 60 60 60 60 60 78 78 31 31 31 31 31 31 31 31 31 6
 6 6 44 44 44 44 44 60 60 60 60 60 78 78 78 78 31 31 31 31
 31 31 31 31 6 6 6 6 6 44 50 50 50 60 60 60 78 78 78 78
 78 25 25 31 31 31 31 31 6 6 6 6 6 6 50 50 50 50 50 60
 60 78 78 78 78 78 25 25 31 31 31 31 94 7 7 7 7 7 7 50
 50 50 50 50 50 78 78 78 78 78 78 78 78 78 31 31 94 94 94 94
 94 94 71 18 50 50 83 83 78 78 78 78 78 78 78 78 78 78 78 78
 94 94 94 94 94 94 94 18 18 18 18 83 83 78 78 78 78 78 78 78
 78 78 78 78 104 94 94 94 94 94 94 94 18 18 18 18 18 18 29 78
 78 78 78 78 78 78 78 78 104 104 94 94 94 94 94 69 69 18 18 18
 18 18 18 29 29 78 78 78 78 78 78 78 78 104 69 69 69 94 94 94
 69 69 18 18 18 18 18 18 29 29 29 5 66 66 66 5 5 104 104 69
 69 69 69 69 69 69 69 18 18 18 18 18 29 29 29 29 5 5 66 5
 5 95 95 104 69 69 69 69 69 69 69 69 18 18 18 18 18 29 29 52
 52 52 5 5 5 95 95 95 95 69 69 69 69 69 69 69 69 18 18 18
 18 18 29 52 52 52 52 52 80 80 80 95 95 95 95 69 69 69 69 69
 69 69 18 18 18 18 18 52 52 52 52 52 80 80 80 80 95 95 95 95
 48 48 48 48 48 48 69 89 89 89 89 18 52 52 52 52 52 80 80 80
 80 80 95 95 95 48 48 48 48 48 48 89 89 89 89 89 89 47 52 52
 52 52 80 80 80 80 80 80 80 95 48 48 48 48 48 89 89 89 89 89
 89 47 47 47 47 52 52 80 80 80 80 80 80 80 80 41 48 48 48 48
 89 89 89 89 89 89 47 47 47 47 47 55 55 55 80 80 80 80 41 41
 41 41 48 48 89 89 89 89 89 89 89 47 47 47 47 47 55 55 55 55
 80 80 41 41 41 41 41 41 89 89 89 89 89 89 89 89 89 47 47 47
 55 55 55 55 55 55 80 41 41 41 41 41 41 89 89 89 89 89 89 89
 89 89 47 47 45 9 55 55 55 55 55 31 31 31 31 31 31 31 31 89
 44 44 44 44 44 44 44 91 91 91 91 91 55 55 55 55 31 31 31 31
 31 31 31 31 93 44 44 44 44 44 44 44 91 91 91 91 91 9 9 55
 31 31 31 31 31 31 31 31 31 93 44 44 44 44 44 44 44 91 91 91
 91 91 9 9 4 31 31 31 31 31 31 31 31 31 93 44 44 44 44 44
 44 44 91 91 91 91 91 91 4 4 31 31 31 31 31 31 31 31 31 93
 93 44 44 44 44 44 44 60 60 60 60 60 60 78 78 31 31 31 31 31
 31 31 31 31 6 93 44 44 44 44 44 60 60 60 60 60 60 78 78 78
 78 78 31 31 31 31 31 31 31 6 6 44 44 44 44 50 50 60 60 60
 60 60 78 78 78 78 78 78 31 31 31 31 31 31 6 71 71 71 44 50
 50 50 60 60 60 60 78 78 78 78 78 78 78 78 31 31 31 94 94 94
 71 71 71 71 50 50 50 50 50 78 78 78 78 78 78 78 78 78 78 78
 31 94 94 94 94 94 71 71 71 101 50 83 83 78 78 78 78 78 78 78
 78 78 78 78 81 94 94 94 94 94 94 94 71 18 18 18 83 83 78 78
 78 78 78 78 78 78 78 78 78 81 94 94 94 94 94 94 94 18 18 18
 18 18 29 29 78 78 78 78 78 78 78 78 78 78 81 94 94 94 94 94
 69 69 18 18 18 18 18 29 29 29 78 78 66 66 78 78 78 78 81 69
 69 69 69 94 94 69 69 69 18 18 18 29 29 29 29 29 78 66 66 66
 5 95 95 69 69 69 69 69 69 69 69 69 69 18 18 18 29 29 29 29
 29 29 66 66 66 95 95 95 95 69 69 69 69 69 69 69 69 69 18 18
 29 29 29 29 29 52 52 66 66 66 95 95 95 95 69 69 69 69 69 69
 69 69 69 18 18 29 29 29 29 52 52 52 80 80 80 95 95 95 95 95
 69 69 69 69 69 48 69 69 18 18 18 29 29 52 52 52 52 80 80 80
 80 95 95 95 95 48 48 48 48 48 48 48 89 89 89 89 29 52 52 52
 52 52 80 80 80 80 80 95 95 95 48 48 48 48 48 48 48 89 89 89
 89 47 47 47 52 52 52 80 80 80 80 80 80 95 95 48 48 48 48 48
 89 89 89 89 89 47 47 47 47 47 47 80 80 80 80 80 80 80 80 80
 48 48 48 48 48 89 89 89 89 89 47 47 47 47 47 47 47 55 80 80
 80 80 80 80 80 41 48 48 48 48 89 89 89 89 89 89 47 47 47 47
 47 55 55 55 55 80 80 80 80 41 41 41 48 89 89 89 89 89 89 89
 89 47 47 47 47 47 55 55 55 55 55 80 31 31 31 31 31 31 89 89
 89 89 44 44 44 89 47 47 47 91 91 55 55 55 55 55 31 31 31 31
 31 31 31 31 93 93 93 44 44 44 44 44 91 91 91 91 91 55 55 55
 31 31 31 31 31 31 31 31 31 93 93 93 44 44 44 44 44 91 91 91
 91 91 91 55 4 4 31 31 31 31 31 31 31 31 93 93 93 44 44 44
 44 44 91 91 91 91 91 91 4 4 4 31 31 31 31 31 31 31 31 93
 93 93 44 44 44 44 44 91 91 91 91 91 91 4 4 4 31 31 31 31
 31 31 31 31 93 93 93 44 44 44 44 60 60 60 60 60 60 60 4 4
 4 31 31 31 31 31 31 31 31 31 93 93 44 44 44 44 60 60 60 60
 60 60 78 78 78 78 78 31 31 31 31 31 31 31 31 71 71 44 101 101
 101 60 60 60 60 60 60 78 78 78 78 78 78 31 31 31 31 31 31 71
 71 71 71 101 101 101 60 60 60 60 78 78 78 78 78 78 78 78 78 78
 31 31 65 65 71 71 71 71 71 101 101 101 60 60 78 78 78 78 78 78
 78 78 78 78 78 81 65 65 65 71 71 71 71 71 101 101 101 101 78 78
 78 78 78 78 78 78 78 78 78 81 81 94 94 94 94 71 71 71 71 101
 101 101 78 78 78 78 78 78 78 78 78 78 78 78 81 81 94 94 94 94
 69 69 71 71 18 29 29 29 78 78 78 78 78 78 78 78 78 78 81 81
 81 69 69 94 94 69 69 69 18 18 29 29 29 29 78 78 78 66 66 78
 78 78 78 81 81 69 69 69 69 69 69 69 69 18 18 29 29 29 29 29
 78 78 66 66 66 66 78 78 81 69 69 69 69 69 69 69 69 69 18 18
 29 29 29 29 29 29 78 66 66 66 66 95 95 95 69 69 69 69 69 69
 69 69 69 18 18 29 29 29 29 29 29 29 66 66 66 95 95 95 95 69
 69 69 69 69 69 69 69 69 18 29 29 29 29 29 29 52 52 80 80 80
 95 95 95 95 95 69 69 69 69 69 48 48 69 18 29 29 29 29 29 52
 52 52 80 80 80 80 95 95 95 95 48 48 48 48 48 48 48 48 89 89
 29 29 29 52 52 52 52 80 80 80 80 80 95 95 95 48 48 48 48 48
 48 48 48 89 89 47 47 47 47 47 52 80 80 80 80 80 80 80 95 95
 48 48 48 48 48 48 48 89 89 89 47 47 47 47 47 47 47 80 80 80
 80 80 80 80 95 48 48 48 48 48 48 48 89 89 89 47 47 47 47 47
 47 47 80 80 80 80 80 80 80 80 48 48 48 48 48 89 89 89 89 89
 47 47 47 47 47 47 47 55 55 80 80 80 80 80 31 31 31 48 48 48
 73 73 89 89 89 47 47 47 47 47 47 55 55 55 55 80 80 31 31 31
 31 31 31 31 73 93 73 44 44 44 89 47 47 47 91 91 91 55 55 55
 80 31 31 31 31 31 31 31 31 93 93 93 44 44 44 44 44 91 91 91
 91 91 91 55 4 31 31 31 31 31 31 31 31 31 93 93 93 93 44 44
 44 44 91 91 91 91 91 91 8 4 4 4 31 31 31 31 31 31 31 93
 93 93 93 44 44 44 91 91 91 91 91 91 91 8 4 4 4 31 31 31
 31 31 31 31 93 93 93 93 44 44 44 44 91 91 91 91 91 91 8 4
 4 4 31 31 31 31 31 31 31 93 93 93 93 44 101 101 101 60 60 60
 60 60 8 8 4 4 4 31 31 31 31 31 31 31 31 93 93 101 101 101
 101 101 60 60 60 60 60 78 78 78 78 78 78 31 31 31 31 31 31 71
 71 71 101 101 101 101 101 60 60 60 60 78 78 78 78 78 78 78 78 31
 31 31 65 65 71 71 71 71 101 101 101 101 101 60 60 78 78 78 78 78
 78 78 78 78 78 81 65 65 65 71 71 71 71 71 101 101 101 101 101 78
 78 78 78 78 78 78 78 78 78 81 81 65 65 65 71 71 71 71 71 101
 101 101 101 78 78 78 78 78 78 78 78 78 78 78 81 81 81 65 65 71
 71 71 71 71 101 101 101 101 78 78 78 78 78 78 78 78 78 78 81 81
 81 81 65 65 71 71 71 71 71 101 101 29 29 78 78 78 78 78 78 78
 78 78 78 81 81 81 81 69 69 69 69 69 69 69 18 29 29 29 29 78
 78 78 78 78 78 78 78 81 81 81 81 69 69 69 69 69 69 69 69 18
 29 29 29 29 29 78 78 66 66 39 78 78 81 81 81 69 69 69 69 69
 69 69 69 18 29 29 29 29 29 29 29 78 66 66 66 66 95 95 95 69
 69 69 69 69 69 69 69 69 18 29 29 29 29 29 29 29 29 66 66 66
 95 95 95 95 69 69 69 69 69 69 69 69 69 69 29 29 29 29 29 29
 29 29 80 80 80 80 95 95 95 95 69 69 69 69 69 48 48 69 69 29
 29 29 29 29 29 52 52 80 80 80 80 95 95 95 95 48 48 48 48 48
 48 48 48 48 29 29 29 29 29 52 52 80 80 80 80 80 80 95 95 95
 48 48 48 48 48 48 48 48 89 89 47 47 47 47 47 14 80 80 80 80
 80 80 80 95 95 48 48 48 48 48 48 48 89 89 47 47 47 47 47 47
 47 80 80 80 80 80 80 80 80 95 48 48 48 48 48 48 73 89 89 47
 47 47 47 47 47 47 47 80 80 80 80 80 80 80 80 48 48 48 48 48
 73 73 73 89 47 47 47 47 47 47 47 47 80 80 80 80 80 80 80 80
 31 48 48 48 73 73 73 73 89 89 47 47 47 47 47 47 55 55 55 55
 80 80 80 31 31 31 31 31 73 73 73 73 73 44 100 47 47 47 47 91
 91 91 55 55 55 80 31 31 31 31 31 31 31 31 73 93 93 93 44 44
 90 90 91 91 91 91 91 8 8 8 4 31 31 31 31 31 31 31 31 93
 93 93 93 44 44 90 90 91 91 91 91 91 8 8 8 4 4 31 31 31
 31 31 31 31 93 93 93 93 44 90 90 90 91 91 91 91 91 8 8 4
 4 4 31 31 31 31 31 31 31 93 93 93 93 44 90 90 90 91 91 91
 91 91 8 8 4 4 4 31 31 31 31 31 31 93 93 93 93 90 90 90
 90 101 101 60 60 60 60 8 8 8 4 78 31 31 31 31 31 31 31 65
 93 101 101 101 101 101 101 101 60 60 60 60 78 78 78 78 78 78 31 31
 31 31 65 65 65 71 101 101 101 101 101 101 101 60 60 60 78 78 78 78
 78 78 78 78 31 81 65 65 65 65 71 71 71 101 101 101 101 101 101 60
 78 78 78 78 78 78 78 78 78 81 81 65 65 65 65 71 71 71 101 101
 101 101 101 101 78 78 78 78 78 78 78 78 78 78 81 81 65 65 65 65
 71 71 71 71 101 101 101 101 101 78 78 78 78 78 78 78 78 78 81 81
 81 65 65 65 65 71 71 71 71 101 101 101 101 78 78 78 78 78 78 78
 78 78 81 81 81 81 81 65 65 65 71 71 71 71 101 101 101 29 78 78
 78 78 78 78 78 78 78 81 81 81 81 81 81 65 65 69 69 71 2 2
 2 29 29 29 78 78 78 78 39 78 78 78 81 81 81 81 81 69 69 69
 69 69 69 2 2 2 2 29 29 29 78 78 39 39 39 78 78 81 81 81