# vtk DataFile Version 2.0
Data set from ImportExport Version 6.5.141.ec284b7a5
ASCII

DATASET RECTILINEAR_GRID
DIMENSIONS 26 26 26
X_COORDINATES 26 float
-3.000000 3.000000 9.000000 15.000000 21.000000 27.000000 33.000000 39.000000 45.000000 51.000000 57.000000 63.000000 69.000000 75.000000 81.000000 87.000000 93.000000 99.000000 105.000000 111.000000 117.000000 
123.000000 129.000000 135.000000 141.000000 147.000000 
Y_COORDINATES 26 float
-3.000000 3.000000 9.000000 15.000000 21.000000 27.000000 33.000000 39.000000 45.000000 51.000000 57.000000 63.000000 69.000000 75.000000 81.000000 87.000000 93.000000 99.000000 105.000000 111.000000 117.000000 
123.000000 129.000000 135.000000 141.000000 147.000000 
Z_COORDINATES 26 float
-3.000000 3.000000 9.000000 15.000000 21.000000 27.000000 33.000000 39.000000 45.000000 51.000000 57.000000 63.000000 69.000000 75.000000 81.000000 87.000000 93.000000 99.000000 105.000000 111.000000 117.000000 
123.000000 129.000000 135.000000 141.000000 147.000000 
CELL_DATA 15625
SCALARS FeatureIds int 1
LOOKUP_TABLE default
 56 56 56 14 9 9 9 9 9 9 9 9 9 9 77 77 77 56 56 56
 56 56 56 56 56 56 56 14 14 9 9 9 9 9 9 11 11 11 11 77
 77 77 77 56 56 56 56 56 56 56 56 56 14 14 9 9 9 9 11 11
 11 11 11 11 11 77 77 77 77 56 56 56 56 56 56 56 56 14 14 9
 11 11 11 11 11 11 11 11 11 11 77 77 77 77 77 56 56 56 56 56
 56 56 14 14 11 11 11 11 11 11 11 11 11 11 77 77 77 77 77 77
 56 56 56 56 56 56 91 91 91 11 11 11 11 11 11 11 11 11 11 77
 77 77 77 77 77 77 56 56 56 56 6 91 91 91 36 36 36 36 11 11
 11 11 11 11 68 68 68 68 68 68 68 68 56 56 56 91 91 91 91 91
 36 36 36 36 11 11 11 11 11 68 68 68 68 68 68 68 16 16 33 6
 91 91 91 91 36 36 36 36 36 11 11 11 11 11 68 68 68 68 68 68
 68 16 16 33 33 91 91 91 91 36 36 36 36 36 36 11 11 11 80 80
 68 68 68 68 68 68 16 16 33 33 71 71 71 71 71 36 36 36 36 36
 11 11 80 80 80 80 68 68 68 68 68 16 16 16 16 71 71 71 71 71
 71 36 36 36 36 11 80 80 80 80 80 80 68 68 68 68 16 16 16 16
 71 71 71 71 71 71 71 29 29 29 29 80 80 80 80 80 80 80 68 68
 68 48 48 48 48 71 71 71 71 71 71 19 19 29 29 29 66 80 80 80
 80 80 87 87 87 87 48 48 48 48 71 71 71 71 71 71 19 19 19 19
 66 66 66 66 66 87 87 87 87 87 87 48 48 48 48 71 71 71 71 71
 19 19 19 19 19 66 66 66 66 66 66 87 87 87 87 87 87 48 48 48
 71 71 71 71 19 19 19 19 19 19 66 66 66 66 66 66 66 87 87 87
 87 87 48 48 88 71 71 71 19 19 19 19 19 19 19 66 66 66 66 66
 66 66 70 70 76 76 76 76 76 76 56 71 71 19 19 19 19 19 19 19
 66 66 66 66 66 66 70 70 70 70 70 70 70 70 56 56 56 19 19 19
 19 19 19 19 19 66 66 66 66 66 70 70 70 70 70 70 70 70 56 56
 56 56 74 74 19 19 19 19 19 19 66 66 66 66 66 70 70 70 70 70
 70 70 56 56 56 56 56 56 9 9 9 9 9 9 9 66 66 66 66 66
 70 70 70 70 70 70 56 56 56 56 56 56 56 9 9 9 9 9 9 9
 9 61 61 61 66 70 70 70 70 70 56 56 56 56 56 56 56 56 9 9
 9 9 9 9 9 9 9 61 61 61 70 70 70 70 56 56 56 56 56 56
 56 56 56 9 9 9 9 9 9 9 9 9 61 61 61 70 70 70 56 56
 56 56 56 56 56 56 56 14 14 9 9 9 9 9 9 9 9 61 61 77
 77 77 56 56 56 56 56 56 56 56 56 56 14 14 14 9 9 9 9 9
 11 11 11 11 58 77 77 77 56 56 56 56 56 56 56 56 56 14 14 14
 9 9 11 11 11 11 11 11 11 58 77 77 77 77 56 56 56 56 56 56
 56 56 14 14 14 11 11 11 11 11 11 11 11 11 58 77 77 77 77 77
 56 56 56 56 56 56 56 14 54 54 11 11 11 11 11 11 11 11 11 77
 77 77 77 77 77 77 56 56 56 56 6 91 91 54 54 36 11 11 11 11
 11 11 11 11 77 77 77 77 77 77 77 56 56 56 56 6 91 91 91 91
 36 36 36 11 11 11 11 11 11 77 77 77 77 77 77 77 68 6 6 6
 6 91 91 91 91 36 36 36 36 11 11 11 11 11 68 68 68 68 68 68
 68 68 6 33 6 91 91 91 91 36 36 36 36 36 36 11 11 11 11 68
 68 68 68 68 68 68 68 33 33 33 91 91 91 91 91 36 36 36 36 36
 11 11 11 80 80 68 68 68 68 68 68 68 33 33 33 71 71 71 71 71
 71 36 36 36 36 11 11 80 80 80 80 68 68 68 68 68 68 33 33 33
 71 71 71 71 71 71 71 29 36 36 11 80 80 80 80 80 80 68 68 68
 68 68 16 33 33 71 71 71 71 71 71 71 29 29 29 29 80 80 80 80
 80 80 80 68 68 68 48 48 48 48 71 71 71 71 71 71 71 29 29 29
 29 80 80 80 80 80 80 80 68 87 87 48 48 48 48 71 71 71 71 71
 71 71 19 29 29 29 66 66 66 66 66 80 87 87 87 87 48 48 48 88
 71 71 71 71 71 71 19 19 19 66 66 66 66 66 66 66 66 87 87 87
 87 87 48 88 88 71 71 71 71 71 19 19 19 19 66 66 66 66 66 66
 66 66 66 87 87 87 87 88 88 88 71 71 71 71 19 19 19 19 19 66
 66 66 66 66 66 66 66 70 70 70 76 76 76 76 88 71 71 71 71 19
 19 19 19 19 66 66 66 66 66 66 66 66 70 70 70 70 70 70 56 56
 56 74 74 74 19 19 19 19 19 66 66 66 66 66 66 66 70 70 70 70
 70 70 56 56 56 56 74 74 74 74 19 9 19 9 66 66 66 66 66 66
 66 70 70 70 70 70 56 56 56 56 56 56 56 9 9 9 9 9 9 9
 61 61 61 66 66 66 70 70 70 70 56 56 56 56 56 56 56 56 9 9
 9 9 9 9 9 61 61 61 61 61 70 70 70 70 56 56 56 56 56 56
 56 56 56 9 9 9 9 9 9 9 9 61 61 61 61 61 70 70 56 56
 56 56 56 56 56 56 56 56 9 9 9 9 9 9 9 9 61 61 61 61
 61 70 56 56 56 56 56 56 56 56 56 38 38 14 9 9 9 9 9 9
 61 61 61 61 61 61 77 56 56 56 56 56 56 56 56 56 38 38 14 9
 9 9 9 9 11 11 61 61 61 58 77 77 77 56 56 56 8 56 56 56
 56 38 38 14 14 9 11 11 11 11 11 11 58 58 58 77 77 77 77 77
 56 56 56 56 56 56 38 38 14 14 11 11 11 11 11 11 11 58 58 58
 77 77 77 77 77 77 56 56 56 56 6 6 38 54 54 54 11 11 11 11
 11 11 11 58 77 77 77 77 77 77 77 6 6 6 6 6 6 91 54 54
 54 54 11 11 11 11 11 11 11 77 77 77 77 77 77 77 6 6 6 6
 6 6 91 91 54 54 36 36 11 11 11 11 11 11 77 77 77 77 77 77
 77 6 6 6 6 6 91 91 91 91 36 36 36 36 11 11 11 11 11 68
 68 68 77 77 77 77 6 6 6 6 6 91 91 91 36 36 36 36 36 11
 11 11 11 11 68 68 68 68 68 68 68 68 6 33 6 71 71 71 91 36
 36 36 36 36 36 11 11 11 80 80 68 68 68 68 68 68 68 33 33 33
 71 71 71 71 71 71 36 36 36 36 11 11 80 80 80 80 68 68 68 68
 68 68 33 33 33 71 71 71 71 71 71 79 79 36 36 11 80 80 80 80
 80 80 68 68 68 68 68 16 33 33 71 71 71 71 71 71 71 71 29 29
 29 80 80 80 80 80 80 80 68 68 68 68 48 48 48 71 71 71 71 71
 71 71 71 29 29 29 80 80 80 80 80 80 80 68 68 68 68 48 88 88
 71 71 71 71 71 71 71 71 29 29 66 66 66 66 66 66 80 80 68 68
 68 88 88 88 88 71 71 71 71 71 71 71 19 19 66 66 66 66 66 66
 66 66 66 66 87 87 88 88 88 88 71 71 71 71 71 71 19 19 19 66
 66 66 66 66 66 66 66 66 66 26 26 26 88 88 88 71 71 71 71 71
 71 19 19 19 66 66 66 66 66 66 66 66 66 70 26 26 26 88 88 88
 71 71 74 74 74 19 19 19 19 66 66 66 66 66 66 66 66 66 70 70
 26 26 85 85 85 74 74 74 74 74 74 19 19 19 66 66 66 66 66 66
 66 66 70 70 70 26 26 85 85 85 74 74 74 74 74 74 9 19 9 61
 66 66 66 66 66 66 66 70 70 70 26 56 56 56 56 56 74 74 74 74
 74 9 9 9 61 61 61 61 61 61 61 70 70 70 70 56 56 56 56 56
 56 56 74 74 74 9 9 9 9 61 61 61 61 61 61 61 70 70 70 56
 56 56 56 56 56 56 56 56 9 9 9 9 9 9 61 61 61 61 61 61
 61 61 56 56 56 56 56 56 56 56 56 56 56 9 9 9 9 9 9 9
 61 61 61 61 61 61 61 56 56 56 56 56 56 56 56 38 38 38 14 9
 9 9 9 9 61 61 61 61 61 61 61 61 56 56 56 8 8 56 56 56
 38 38 38 14 9 9 9 9 11 11 61 61 61 61 61 77 77 77 77 56
 8 8 8 56 56 38 38 38 14 14 11 11 11 11 11 11 11 58 58 58
 77 77 77 77 77 8 8 56 56 56 6 38 38 50 11 11 11 11 11 11
 11 11 58 58 58 77 77 77 77 77 77 6 6 6 6 6 6 6 54 54
 54 54 11 11 11 11 11 58 58 58 77 77 77 77 77 77 6 6 6 6
 6 6 6 54 54 54 54 11 11 11 11 11 11 11 77 77 77 77 77 77
 77 6 6 6 6 6 6 6 54 54 54 36 11 11 11 11 11 11 11 77
 77 77 77 77 77 77 6 6 6 6 6 6 91 83 83 36 36 36 11 11
 11 11 11 11 77 77 77 77 77 77 77 6 6 6 6 6 6 83 83 83
 83 36 36 36 11 11 11 11 11 68 68 68 68 68 68 68 6 6 6 6
 71 71 83 83 83 83 83 36 36 11 11 11 11 80 68 68 68 68 68 68
 68 68 6 33 6 71 71 71 71 79 83 79 79 36 11 11 11 80 80 80
 80 68 68 68 68 68 68 6 33 6 71 71 71 71 71 79 79 79 79 79
 11 80 80 80 80 80 80 68 68 68 68 68 68 33 33 71 71 71 71 71
 71 79 79 79 29 13 80 80 80 80 80 80 68 68 68 68 68 88 88 88
 71 71 71 71 71 71 71 79 79 29 13 66 66 80 80 80 80 80 68 68
 68 88 88 88 88 71 71 71 71 71 71 71 79 79 29 66 66 66 66 66
 66 80 80 68 68 68 88 88 88 88 71 71 71 71 71 71 71 71 19 66
 66 66 66 66 66 66 66 66 26 26 26 88 88 88 88 71 71 71 71 71
 71 71 71 19 66 66 66 66 66 66 66 66 66 26 26 26 26 88 88 88
 71 71 71 71 71 71 71 19 19 66 66 66 66 66 66 66 66 26 26 26
 26 26 88 88 88 71 74 74 74 74 74 19 19 19 66 66 66 66 66 66
 66 66 26 26 26 26 26 85 85 85 74 74 74 74 74 74 74 19 61 66
 66 66 66 66 66 66 66 26 26 26 26 26 85 85 85 74 74 74 74 74
 74 74 61 61 61 61 61 61 66 66 66 66 26 26 26 26 26 85 85 85
 74 74 74 74 74 74 74 61 61 61 61 61 61 61 61 61 26 26 26 26
 26 56 56 56 56 56 74 74 74 74 74 9 9 61 61 61 61 61 61 57
 57 57 26 26 26 56 56 56 56 56 56 56 74 74 74 9 9 9 61 61
 61 61 61 57 57 57 57 57 56 56 56 56 56 56 56 56 38 38 9 9
 9 9 9 61 61 61 61 61 61 57 57 57 57 56 56 56 56 56 56 56
 38 38 38 38 9 9 9 9 61 61 61 61 61 61 61 61 61 77 56 56
 8 8 56 56 56 38 38 38 38 9 9 9 60 61 61 61 61 61 61 61
 61 77 77 77 8 8 8 8 56 56 38 38 38 50 50 11 60 60 60 4
 11 61 58 58 58 77 77 77 77 77 8 8 6 6 6 6 50 50 50 11
 11 60 60 60 4 4 11 58 58 58 77 77 77 77 77 6 6 6 6 6
 6 50 50 50 54 54 54 60 11 11 11 11 58 58 77 77 77 77 77 77
 6 6 6 6 6 6 6 50 50 54 54 54 11 11 11 11 11 11 11 77
 77 77 77 77 77 77 6 6 6 6 6 6 50 54 54 54 54 11 11 11
 11 11 11 11 77 77 77 77 77 77 77 6 6 6 6 6 6 6 83 83
 83 83 11 11 11 11 11 11 11 77 77 77 77 77 77 77 6 6 6 6
 6 6 83 83 83 83 83 83 11 11 11 11 11 2 68 68 68 68 68 68
 68 6 6 6 6 6 6 83 83 83 83 83 83 83 11 11 11 11 68 68
 68 68 68 68 68 68 6 6 6 6 71 71 71 79 79 83 83 79 79 79
 11 11 80 80 80 68 68 68 68 68 68 68 6 6 6 71 71 71 71 79
 79 79 79 79 79 13 13 80 80 80 80 68 68 68 68 68 68 88 88 6
 71 71 71 71 71 79 79 79 79 79 13 13 13 80 80 80 80 68 68 68
 68 88 88 88 88 71 71 71 71 71 71 79 79 79 13 13 13 13 13 80
 80 80 80 68 68 88 88 88 88 88 71 71 71 71 71 71 71 79 13 13
 13 13 13 13 66 66 80 80 26 26 88 88 88 88 88 88 71 71 71 71
 71 71 71 13 13 13 13 13 66 66 66 66 26 26 26 26 88 88 88 88
 88 71 71 71 71 71 71 71 13 13 13 66 66 66 66 66 66 26 26 26
 26 26 88 88 88 88 71 71 71 71 71 71 42 66 66 66 66 66 66 66
 66 66 26 26 26 26 26 88 88 88 74 74 74 74 74 74 32 42 61 66
 66 66 66 66 66 66 26 26 26 26 26 26 26 85 88 74 74 74 74 74
 74 32 32 61 61 61 61 66 66 66 66 26 26 26 26 26 26 26 85 85
 74 74 74 74 74 74 32 32 61 61 61 61 61 61 61 26 26 26 26 26
 26 26 26 85 85 74 74 74 74 74 32 32 61 61 61 61 61 61 61 61
 61 26 26 26 26 26 26 26 56 56 74 74 74 74 32 32 32 61 61 61
 61 61 61 57 57 57 57 26 26 26 26 26 56 56 56 56 56 74 74 32
 32 32 61 61 61 61 61 61 57 57 57 57 26 26 26 56 56 56 56 56
 56 38 38 74 9 9 9 61 61 61 61 61 61 57 57 57 57 57 26 56
 56 56 56 56 56 50 50 50 50 9 9 9 61 61 61 61 61 61 61 61
 61 61 61 77 56 8 8 56 56 50 50 50 50 50 50 60 60 60 61 61
 61 61 61 61 61 61 77 77 77 8 8 6 6 6 50 50 50 50 50 50
 60 60 60 60 4 4 61 61 61 61 77 77 77 77 77 6 6 6 6 50
 50 50 50 50 50 60 60 60 60 4 4 11 58 58 77 77 77 77 77 77
 6 6 6 6 6 6 50 50 50 54 54 60 60 60 4 4 11 2 2 77
 77 77 77 77 77 6 6 6 6 6 6 50 50 50 54 54 54 11 11 11
 11 11 2 2 77 77 77 77 77 77 6 6 6 6 6 6 6 50 50 83
 83 83 11 11 11 11 11 2 2 2 77 77 77 77 77 6 6 6 6 6
 6 6 83 83 83 83 83 83 11 11 11 11 2 2 2 77 77 77 77 77
 6 6 6 6 6 6 6 83 83 83 83 83 83 11 11 11 11 2 2 2
 77 77 77 77 77 6 6 6 6 6 6 83 83 83 83 83 83 83 83 83
 11 2 2 2 68 68 68 68 68 68 68 6 6 6 6 6 79 79 79 79
 83 79 79 79 79 79 2 2 2 80 68 68 68 68 68 68 6 6 6 6
 71 71 71 79 79 79 79 79 79 79 13 13 13 80 80 80 68 68 68 68
 68 88 88 88 6 71 71 71 71 79 79 79 79 79 13 13 13 13 13 80
 80 80 68 68 68 88 88 88 88 88 71 71 71 71 71 79 79 79 79 13
 13 13 13 13 13 13 80 80 68 88 88 88 88 88 88 88 71 71 71 71
 71 79 79 13 13 13 13 13 13 13 13 13 80 26 26 88 88 88 88 88
 88 71 71 71 71 71 79 79 13 13 13 13 13 13 13 13 26 26 26 26
 26 88 88 88 88 88 88 71 71 71 71 79 13 13 13 13 13 13 13 13
 66 26 26 26 26 26 26 88 88 88 88 88 71 71 71 71 32 42 13 13
 13 13 13 13 66 66 26 26 26 26 26 26 88 88 88 88 74 74 74 74
 32 32 42 42 42 13 13 13 66 66 66 26 26 26 26 26 26 26 88 88
 74 74 74 74 74 32 32 32 42 42 61 61 61 61 66 26 26 26 26 26
 26 26 26 26 88 74 74 74 74 74 32 32 32 61 61 61 61 61 61 61
 26 26 26 26 26 26 26 26 26 26 74 74 74 74 32 32 32 32 61 61
 61 61 61 61 61 61 26 26 26 26 26 26 26 26 26 74 74 74 74 32
 32 32 61 61 61 61 61 61 57 57 57 26 26 26 26 26 26 26 56 56
 56 56 74 74 32 32 32 61 61 61 61 61 61 57 57 57 57 26 26 26
 26 26 56 56 56 56 38 74 74 32 32 32 61 61 61 61 61 61 57 57
 57 57 26 26 26 26 56 56 56 56 50 50 50 50 50 50 61 61 61 61
 61 61 61 61 61 61 61 61 77 56 8 8 56 50 50 50 50 50 50 50
 50 60 60 61 61 61 61 61 61 61 61 77 77 77 77 6 6 6 50 50
 50 50 50 50 50 50 60 60 60 4 4 61 61 61 61 77 77 77 77 77
 6 6 6 6 50 50 50 50 50 50 60 60 60 60 4 4 2 2 2 2
 77 77 77 77 77 6 6 6 6 50 50 50 50 50 50 50 60 60 60 4
 4 2 2 2 2 77 77 77 77 77 6 6 6 6 6 6 50 50 50 50
 54 54 11 11 11 11 2 2 2 2 2 77 77 77 77 6 6 6 6 6
 6 50 50 50 83 83 47 47 47 11 2 2 2 2 2 2 77 77 77 77
 6 6 6 6 6 6 6 50 83 83 83 83 47 47 11 2 2 2 2 2
 2 2 77 77 77 6 6 6 6 6 6 6 83 83 83 83 83 47 47 47
 2 2 2 2 2 2 2 77 77 77 6 6 6 6 6 6 6 83 83 83
 83 83 83 83 30 2 2 2 2 2 2 2 68 68 24 24 6 6 6 6
 6 79 79 79 79 79 79 79 79 79 2 2 2 2 2 2 68 68 68 24
 24 24 6 6 6 71 71 79 79 79 79 79 79 79 79 13 13 13 2 2
 2 68 68 68 24 24 24 88 88 88 71 71 71 79 79 79 79 79 79 13
 13 13 13 13 13 13 24 24 24 24 24 88 88 88 88 88 71 71 79 79
 79 79 79 13 13 13 13 13 13 13 13 24 24 24 24 88 88 88 88 88
 88 88 71 71 52 52 52 79 13 13 13 13 13 13 13 13 26 26 26 88
 88 88 88 88 88 88 88 71 71 52 52 52 13 13 13 13 13 13 13 13
 13 26 26 26 26 26 88 88 88 88 88 88 88 71 52 52 52 13 13 13
 13 13 13 13 13 13 26 26 26 26 26 88 88 88 88 88 88 88 71 52
 42 42 42 42 13 13 13 13 13 13 26 26 26 26 26 26 26 88 88 88
 88 88 74 74 74 32 42 42 42 42 42 13 13 13 13 26 26 26 26 26
 26 26 26 88 88 74 74 74 74 74 32 32 42 42 42 42 42 42 42 26
 26 26 26 26 26 26 26 26 26 88 74 74 74 74 32 32 32 32 42 42
 61 61 61 61 61 26 26 26 26 26 26 26 26 26 88 74 74 74 74 32
 32 32 32 61 61 61 61 61 61 61 64 26 26 26 26 26 26 26 26 26
 63 74 74 74 32 32 32 61 61 61 61 61 61 57 57 57 26 26 26 26
 26 26 26 26 26 56 74 74 74 32 32 32 61 61 61 61 61 61 57 57
 57 26 26 26 26 26 26 26 56 56 56 38 74 74 32 32 61 61 61 61
 61 61 61 57 57 57 57 26 26 26 26 26 56 56 56 50 50 50 50 50
 50 61 61 61 61 61 61 61 61 61 61 61 64 64 64 8 8 50 50 50
 50 50 50 50 50 50 82 82 61 61 61 61 61 61 61 61 61 77 77 77
 6 6 50 50 50 50 50 50 50 50 50 82 82 82 4 4 61 61 61 2
 2 77 77 77 77 6 6 6 50 50 50 50 50 50 50 50 82 82 82 4
 4 2 2 2 2 2 77 77 77 77 6 6 6 6 50 50 50 50 50 50
 50 82 82 82 4 2 2 2 2 2 2 2 77 77 77 6 6 6 6 50
 50 50 50 50 50 50 82 82 11 2 2 2 2 2 2 2 2 2 77 77
 6 6 6 6 6 6 50 50 50 50 83 47 47 47 2 2 2 2 2 2
 2 2 2 77 77 6 6 6 6 6 6 6 50 83 83 83 47 47 47 2
 2 2 2 2 2 2 2 2 77 77 6 6 6 6 6 6 6 83 83 83
 83 83 47 47 2 2 2 2 2 2 2 2 2 24 24 6 6 6 6 6
 6 6 83 83 83 83 83 83 30 30 2 2 2 2 2 2 2 24 24 24
 24 24 6 6 6 6 79 79 79 79 79 79 30 30 30 2 2 2 2 2
 2 2 24 24 24 24 24 24 6 6 88 71 79 79 79 79 79 79 30 30
 30 2 2 2 2 2 24 24 24 24 24 24 24 88 88 88 71 71 79 79
 79 79 30 30 13 13 13 13 13 13 24 24 24 24 24 24 24 88 88 88
 88 88 71 52 52 52 52 30 13 13 13 13 13 13 13 13 24 24 24 24
 24 88 88 88 88 88 88 71 52 52 52 52 52 13 13 13 13 13 13 13
 13 24 24 24 24 88 88 88 88 88 88 88 88 52 52 52 52 52 13 13
 13 13 13 13 13 13 26 26 26 26 26 88 88 88 88 88 88 88 52 52
 52 42 42 13 13 13 13 13 13 13 13 26 26 26 26 26 88 88 88 88
 88 88 88 75 75 42 42 42 42 42 13 13 13 13 13 13 26 26 26 26
 26 26 88 88 88 88 88 74 74 74 42 42 42 42 42 42 42 13 13 13
 64 26 26 26 26 26 26 26 88 88 88 74 74 74 74 42 42 42 42 42
 42 42 42 42 64 64 26 26 26 26 26 26 26 26 88 74 74 74 74 32
 32 32 42 42 42 42 42 42 61 64 64 26 26 26 26 26 26 26 26 88
 63 74 74 74 32 32 32 32 41 41 61 61 61 61 64 64 64 26 26 26
 26 26 26 26 26 63 63 74 74 32 32 32 41 41 61 61 61 61 61 57
 64 64 26 26 26 26 26 26 26 26 63 63 63 74 32 32 32 61 61 61
 61 61 61 57 57 57 64 26 26 26 26 26 26 26 63 63 63 63 63 32
 32 61 61 61 61 61 61 61 61 57 57 64 26 26 26 26 26 26 26 63
 50 50 50 50 50 50 82 61 61 61 61 61 61 61 61 61 64 64 64 64
 64 3 50 50 50 50 50 50 50 50 50 82 82 61 61 61 61 61 61 61
 2 64 64 64 64 3 3 50 50 50 50 50 50 50 50 50 82 82 82 4
 61 61 2 2 2 2 2 2 3 3 3 3 6 50 50 50 50 50 50 50
 50 82 82 82 4 2 2 2 2 2 2 2 2 3 3 3 6 6 50 50
 50 50 50 50 50 50 82 82 82 2 2 2 2 2 2 2 2 2 3 3
 3 3 6 6 50 50 50 50 50 50 50 82 82 11 2 2 2 2 2 2
 2 2 2 3 3 3 3 6 6 50 50 50 50 50 50 47 47 47 47 2
 2 2 2 2 2 2 2 2 2 3 3 3 6 6 6 6 50 50 50 30
 30 47 47 47 2 2 2 2 2 2 2 2 2 2 3 3 3 6 6 6
 6 6 30 30 30 30 30 47 30 30 2 2 2 2 2 2 2 2 24 24
 24 3 6 6 6 6 6 30 30 30 30 30 30 30 30 2 2 2 2 2
 2 2 24 24 24 24 24 24 6 6 34 34 34 34 30 30 30 30 30 30
 30 2 2 2 2 2 24 24 24 24 24 24 24 24 88 34 34 34 34 30
 30 30 30 30 30 30 2 2 2 2 24 24 24 24 24 24 24 24 24 88
 88 34 34 34 52 52 30 30 30 30 13 13 13 13 13 24 24 24 24 24
 24 24 88 88 88 88 88 52 52 52 52 52 30 30 13 13 13 13 13 13
 24 24 24 24 24 24 24 88 88 88 88 88 88 52 52 52 52 30 13 13
 13 13 13 13 13 13 24 24 24 24 24 88 88 88 88 88 88 88 52 52
 52 52 52 13 13 13 13 13 13 13 13 24 24 24 26 26 88 88 88 88
 88 88 88 75 75 75 42 42 42 13 13 13 13 13 13 13 26 26 26 26
 26 88 88 88 88 88 88 88 75 75 75 42 42 42 42 42 13 13 13 13
 26 26 26 26 26 26 26 88 88 88 88 88 75 75 37 37 42 42 42 42
 42 42 42 42 64 64 26 26 26 26 26 26 26 88 88 88 88 74 37 37
 37 42 42 42 42 42 42 42 42 64 64 64 26 26 26 26 26 26 26 88
 63 63 74 37 37 37 42 42 42 42 42 42 42 42 64 64 64 26 26 26
 26 26 26 26 88 63 63 63 74 37 37 42 42 41 41 41 42 42 64 64
 64 64 64 26 26 26 26 26 26 63 63 63 63 63 32 32 32 41 41 41
 41 61 61 61 64 64 64 64 64 26 26 26 26 26 63 63 63 63 63 32
 32 41 41 41 41 61 61 61 61 64 64 64 64 64 64 26 26 26 26 63
 63 63 63 63 63 32 61 61 61 61 61 61 61 61 64 64 64 64 64 64
 64 26 26 26 63 50 50 50 50 50 82 82 62 61 61 61 61 61 61 61
 64 64 64 64 64 64 3 3 50 50 50 50 50 50 50 82 82 82 62 62
 61 61 61 61 2 64 64 64 64 64 3 3 3 50 50 50 50 50 50 50
 50 82 82 82 62 2 2 2 2 2 2 2 64 3 3 3 3 3 50 50
 50 50 50 50 50 50 82 82 82 2 2 2 2 2 2 2 2 2 3 3
 3 3 3 3 50 50 50 50 50 50 50 82 82 82 2 2 2 2 2 2
 2 2 2 3 3 3 3 3 3 50 50 50 50 50 50 50 30 30 2 2
 2 2 2 2 2 2 2 2 3 3 3 3 3 3 3 50 50 50 50 30
 30 30 30 30 2 2 2 2 2 2 2 2 2 3 3 3 3 3 3 3
 50 50 50 30 30 30 30 30 30 2 2 2 2 2 2 2 2 2 3 3
 3 3 3 3 3 6 50 30 30 30 30 30 30 30 30 2 2 2 2 2
 2 2 2 24 24 24 3 3 3 3 6 30 30 30 30 30 30 30 30 30
 2 2 2 2 2 2 2 24 24 24 24 24 24 24 24 34 34 34 34 30
 30 30 30 30 30 30 2 2 2 2 2 24 24 24 24 24 24 24 24 24
 34 34 34 34 34 30 30 30 30 30 30 30 2 2 2 24 24 24 24 24
 24 24 24 24 88 88 34 34 34 30 30 30 30 30 30 30 30 13 13 2
 24 24 24 24 24 24 24 24 88 88 88 88 34 52 52 52 30 30 30 30
 13 13 13 13 13 24 24 24 24 24 24 24 88 88 88 88 88 17 17 17
 17 17 30 30 13 13 13 13 13 13 24 24 24 24 24 24 24 88 88 88
 88 88 17 17 17 17 17 17 13 13 13 13 13 13 13 13 24 24 90 90
 90 88 88 88 88 88 88 75 75 75 75 75 42 42 42 13 13 13 13 13
 13 24 26 90 90 26 88 88 88 88 88 88 75 75 75 75 75 42 42 42
 42 42 13 13 13 64 64 26 26 26 26 26 88 88 88 88 88 75 75 75
 37 42 42 42 42 42 42 42 42 64 64 64 64 26 26 26 26 26 88 88
 88 63 75 75 37 37 37 42 42 42 42 42 42 42 64 64 64 64 26 26
 26 26 26 26 88 63 63 63 37 37 37 42 42 42 42 42 42 42 64 64
 64 64 64 64 26 26 26 26 26 26 63 63 63 63 37 37 42 42 41 41
 41 42 42 64 64 64 64 64 64 64 26 26 26 26 63 63 63 63 63 63
 37 42 41 41 41 41 41 42 64 64 64 64 64 64 64 64 64 26 63 63
 63 63 63 63 63 32 41 41 41 41 41 61 61 64 64 64 64 64 64 64
 64 64 64 63 63 63 63 63 63 63 32 41 41 41 61 61 61 61 61 64
 64 64 64 64 64 64 64 64 63 63 63 63 63 63 63 62 62 62 62 62
 62 62 62 61 64 64 64 64 64 64 64 64 3 3 50 50 50 50 50 50
 62 62 62 62 62 62 62 62 2 64 64 64 64 64 64 3 3 3 3 50
 50 50 50 50 50 50 62 62 62 62 62 2 2 2 2 2 64 3 3 3
 3 3 3 3 50 50 50 50 50 50 50 62 62 62 62 2 2 2 2 2
 2 2 3 3 3 3 3 3 3 50 50 50 50 50 50 50 62 62 62 2
 2 2 2 2 2 2 2 2 3 3 3 3 3 3 3 50 50 50 50 50
 30 30 30 62 2 2 2 2 2 2 2 86 86 3 3 3 3 3 3 3
 50 50 50 50 30 30 30 30 30 2 2 2 2 2 2 86 86 86 3 3
 3 3 3 3 3 50 50 50 30 30 30 30 30 30 30 2 2 2 2 2
 86 86 86 3 3 3 3 3 3 3 6 30 30 30 30 30 30 30 30 30
 2 2 2 2 2 86 86 86 24 24 3 3 3 3 3 30 30 30 30 30
 30 30 30 30 30 30 2 2 2 2 2 2 24 24 24 24 24 24 3 3
 34 34 34 30 30 30 30 30 30 30 30 2 2 2 2 2 24 24 24 24
 24 24 24 24 24 34 34 34 34 30 30 30 30 30 30 30 30 2 2 2
 24 24 24 24 24 24 24 24 24 24 93 34 34 30 30 30 30 30 30 30
 30 30 2 2 24 24 24 24 24 24 24 24 24 24 88 88 34 17 17 17
 17 30 30 30 30 49 49 49 49 24 24 24 24 24 24 24 24 24 43 43
 88 88 17 17 17 17 17 17 30 49 49 49 49 49 49 24 24 24 90 90
 90 90 43 43 43 88 88 17 17 17 17 17 17 17 49 49 49 49 49 49
 24 24 90 90 90 90 90 43 43 43 88 88 75 75 75 75 75 17 42 42
 49 49 49 49 49 64 24 90 90 90 90 90 43 43 43 88 92 75 75 75
 75 75 42 42 42 42 49 49 49 64 64 64 64 90 90 26 26 43 43 43
 92 92 75 75 75 75 75 42 42 42 42 42 42 42 64 64 64 64 64 26
 26 26 26 43 43 92 92 75 75 75 37 42 42 42 42 42 42 42 64 64
 64 64 64 64 64 26 26 26 26 51 63 63 63 75 37 37 42 42 42 42
 42 42 42 64 64 64 64 64 64 64 64 64 26 26 51 63 63 63 63 37
 37 42 42 41 41 41 42 42 64 64 64 64 64 64 64 64 64 64 64 63
 63 63 63 63 63 23 23 41 41 41 41 42 64 64 64 64 64 64 64 64
 64 64 64 64 63 63 63 63 63 63 23 23 23 41 41 41 61 64 64 64
 64 64 64 64 64 64 64 64 63 63 63 63 63 63 63 23 23 23 41 41
 61 61 61 64 64 64 64 64 64 64 64 64 64 63 63 63 63 63 63 63
 62 62 62 62 62 62 62 62 62 64 64 64 64 64 64 64 64 3 3 3
 50 50 50 50 62 62 62 62 62 62 62 62 62 62 64 64 64 64 64 64
 3 3 3 3 3 50 50 50 50 50 62 62 62 62 62 62 62 62 62 2
 64 64 3 3 3 3 3 3 3 3 50 67 50 50 50 62 62 62 62 62
 62 62 2 2 2 2 2 3 3 3 3 3 3 3 3 50 50 50 50 50
 30 62 62 62 62 2 2 2 2 2 2 2 3 3 3 3 3 3 3 3
 50 50 50 50 30 30 30 62 62 2 2 2 2 2 2 86 86 86 3 3
 3 3 3 3 3 50 50 50 30 30 30 30 30 30 30 2 2 2 2 86
 86 86 86 3 3 3 3 3 3 3 50 50 30 30 30 30 30 30 30 30
 2 2 2 2 86 86 86 86 3 3 3 3 3 3 3 30 30 30 30 30
 30 30 30 30 30 30 2 2 2 86 86 86 86 24 24 3 3 3 3 3
 30 30 30 30 30 30 30 30 30 30 30 2 2 2 2 86 86 24 24 24
 24 24 24 3 3 93 30 30 30 30 30 30 30 30 30 30 30 2 2 2
 2 24 24 24 24 24 24 24 24 24 93 93 30 30 30 30 30 30 30 30
 30 30 2 2 2 24 24 24 24 24 24 24 24 24 24 93 93 30 30 30
 30 30 30 30 30 30 30 2 2 24 24 24 24 24 24 24 24 24 24 24
 93 93 17 17 17 17 30 30 30 30 49 49 49 49 24 24 24 24 24 24
 24 24 43 43 43 43 93 17 17 17 17 17 17 30 49 49 49 49 49 49
 24 24 24 90 90 90 90 43 43 43 43 43 17 17 17 17 17 17 17 49
 49 49 49 49 65 65 90 90 90 90 90 90 43 43 43 43 43 75 75 75
 17 17 17 42 49 49 49 49 49 65 65 65 90 90 90 90 90 43 43 43
 43 92 75 75 75 75 75 75 42 42 42 49 49 49 64 64 64 90 90 90
 90 90 43 43 43 92 92 92 75 75 75 75 42 42 42 42 42 42 42 64
 64 64 64 64 90 64 64 51 51 51 92 92 92 75 75 75 75 42 42 42
 42 42 42 64 64 64 64 64 64 64 64 64 51 51 51 92 92 92 75 75
 75 42 42 42 42 42 42 42 64 64 64 64 64 64 64 64 64 51 51 51
 63 63 63 63 75 75 42 42 42 41 42 42 64 64 64 64 64 64 64 64
 64 64 64 51 63 63 63 63 63 63 23 23 23 41 41 41 42 64 64 64
 64 64 64 64 64 64 64 64 64 63 63 63 63 63 63 23 23 23 23 62
 62 62 64 64 64 64 64 64 64 64 64 64 64 63 63 63 63 63 63 63
 23 23 23 62 62 62 62 62 64 64 64 64 64 64 64 64 64 64 63 63
 63 63 63 63 63 62 62 62 62 62 62 62 62 62 64 64 64 64 64 64
 64 64 3 3 3 63 63 63 63 62 62 62 62 62 62 62 62 62 62 64
 64 64 64 64 64 3 3 3 3 3 67 67 67 50 62 62 62 62 62 62
 62 62 62 62 5 5 5 5 3 3 3 3 3 3 3 67 67 67 50 62
 62 62 62 62 62 62 62 62 62 5 5 5 3 3 3 3 3 3 3 3
 67 67 67 50 62 62 62 62 62 62 62 62 2 2 5 5 5 3 3 3
 3 3 3 3 3 50 50 50 50 30 30 30 62 62 62 62 2 2 2 86
 86 86 86 3 3 3 3 3 3 3 50 50 50 30 30 30 30 30 30 30
 2 2 2 2 86 86 86 86 3 3 3 3 3 3 3 20 20 20 30 30
 30 30 30 30 30 30 2 2 2 86 86 86 86 3 3 3 3 3 3 3
 20 20 20 20 30 30 30 30 30 30 30 2 2 2 86 86 86 86 24 24
 3 3 3 3 3 20 20 20 20 30 30 30 30 30 30 30 30 2 2 2
 86 86 24 24 24 24 84 84 3 3 93 20 20 30 30 30 30 30 30 30
 30 30 2 2 2 2 24 24 24 24 24 84 84 84 84 93 93 93 30 30
 30 30 30 30 30 30 30 2 2 2 24 24 24 24 24 24 84 84 84 93
 93 93 93 30 28 28 30 30 30 30 30 30 30 2 65 24 24 24 24 24
 24 24 84 84 93 93 93 93 28 28 28 28 30 30 30 49 49 49 49 65
 65 24 24 24 24 24 24 43 43 43 93 93 93 17 17 17 17 17 30 49
 49 49 49 49 65 65 65 65 90 90 90 90 43 43 43 43 43 17 17 17
 17 17 17 17 49 49 49 49 49 65 65 65 90 90 90 90 90 43 43 43
 43 43 75 75 75 75 75 17 42 49 49 49 49 49 65 65 65 65 90 90
 90 90 43 43 43 92 92 75 75 75 75 75 75 42 42 49 49 49 49 65
 65 65 65 90 90 90 90 51 51 43 92 92 92 75 75 75 75 75 42 42
 42 42 42 64 64 64 64 65 64 64 64 51 51 51 51 92 92 92 92 75
 75 75 42 42 42 42 42 42 64 64 64 64 64 64 64 64 51 51 51 51
 92 92 92 92 75 75 75 42 42 42 42 42 64 64 64 64 64 64 64 64
 64 64 51 51 51 63 63 63 63 75 75 42 42 42 42 42 42 64 64 64
 64 64 64 64 64 64 64 51 51 51 63 63 63 63 63 23 23 23 62 62
 62 62 64 64 64 64 64 64 64 64 64 64 64 51 63 63 63 63 63 63
 23 23 23 62 62 62 62 62 64 64 64 64 64 64 64 64 64 64 63 63
 63 63 63 63 63 62 62 62 62 62 62 62 62 64 64 64 64 64 64 64
 64 64 64 63 63 63 63 63 63 62 62 62 62 62 62 62 62 62 62 62
 64 64 64 64 64 64 3 3 3 3 63 63 63 63 62 62 62 62 62 62
 62 62 62 62 5 5 5 5 64 64 3 3 3 3 3 67 67 63 62 62
 62 62 62 62 62 62 62 62 62 5 5 5 5 5 3 3 3 3 3 3
 67 67 67 62 62 62 62 62 62 62 62 62 62 5 5 5 5 5 3 3
 3 3 3 3 3 67 67 67 62 62 62 62 62 62 62 62 62 62 5 5
 5 5 5 3 3 3 3 3 3 3 50 50 50 30 30 30 62 62 62 62
 62 62 62 5 5 5 5 3 3 3 3 3 3 3 3 20 20 20 30 30
 30 30 30 30 30 30 2 2 2 86 86 86 86 3 3 3 3 3 3 3
 20 20 20 30 30 30 30 30 30 30 30 2 2 2 86 86 86 86 3 3
 3 3 3 3 3 20 20 20 20 20 30 30 30 30 30 30 22 2 2 86
 86 86 84 84 84 84 3 3 3 3 20 20 20 20 20 30 30 30 30 30
 30 22 22 2 2 86 84 84 84 84 84 84 84 84 3 93 20 20 20 30
 30 30 30 30 30 30 22 22 2 2 84 84 84 84 84 84 84 84 84 93
 93 93 93 20 30 30 30 30 30 30 30 30 22 2 65 65 84 84 84 84
 84 84 84 84 93 93 93 93 28 28 28 28 30 30 30 30 30 30 65 65
 65 65 65 84 84 84 84 84 84 93 93 93 93 28 28 28 28 30 30 30
 30 49 49 65 65 65 65 65 65 84 84 84 84 84 93 93 93 93 28 28
 28 28 28 30 30 49 49 49 49 65 65 65 65 65 90 90 84 43 43 43
 93 93 93 17 17 17 17 17 30 49 49 49 49 49 65 65 65 65 65 90
 90 90 43 43 43 43 92 78 75 75 75 75 75 75 49 49 49 49 49 65
 65 65 65 65 90 90 90 43 43 43 92 92 78 75 75 75 75 75 42 42
 49 49 49 65 65 65 65 65 65 65 90 90 51 51 51 92 92 92 75 75
 75 75 75 42 42 42 42 42 64 64 64 65 65 65 64 64 51 51 51 51
 92 92 92 92 75 75 75 75 42 42 42 12 64 64 64 64 64 64 64 64
 64 51 51 51 51 92 92 92 92 75 75 75 42 42 42 12 12 12 64 64
 64 64 64 64 64 64 51 51 51 51 78 92 78 78 78 75 75 42 42 12
 12 12 12 64 64 64 64 64 64 64 64 64 51 51 51 63 63 63 63 63
 62 62 62 62 62 62 12 12 64 64 64 64 64 64 64 64 64 64 51 63
 63 63 63 63 63 62 62 62 62 62 62 62 62 64 64 64 64 64 64 64
 64 64 64 63 63 63 63 63 63 63 62 62 62 62 62 62 62 62 64 64
 64 64 64 64 64 64 64 64 63 63 63 63 63 63 62 62 62 62 62 62
 62 62 62 62 62 64 64 64 64 64 39 31 31 31 31 63 63 63 62 62
 62 62 62 62 62 62 62 62 62 5 5 5 5 5 39 39 3 3 3 3
 67 67 63 62 62 62 73 62 62 62 62 62 62 5 5 5 5 5 39 39
 39 3 3 3 3 67 67 15 73 73 73 73 73 62 62 62 62 62 5 5
 5 5 5 39 39 39 3 3 3 3 67 67 15 73 73 73 73 73 62 62
 62 62 62 5 5 5 5 5 18 18 39 3 3 3 3 50 50 15 45 30
 73 73 73 62 62 62 62 62 5 5 5 5 5 18 18 18 3 3 3 3
 27 27 45 45 45 45 45 30 62 62 62 62 2 2 86 86 86 18 18 18
 18 3 3 3 3 27 27 20 45 45 45 30 30 30 30 22 22 22 22 86
 86 86 86 84 3 3 3 3 3 3 20 20 20 20 30 30 30 30 30 30
 22 22 22 22 86 86 84 84 84 84 84 84 84 3 3 20 20 20 20 30
 30 30 30 30 30 22 22 22 22 2 84 84 84 84 84 84 84 84 84 84
 93 20 20 20 30 30 30 30 30 30 22 22 22 22 22 84 84 84 84 84
 84 84 84 84 93 93 93 93 93 30 30 30 30 30 30 22 22 22 22 65
 65 84 84 84 84 84 84 84 84 93 93 93 93 93 28 28 28 30 30 30
 30 30 22 65 65 65 65 65 84 84 84 84 84 84 93 93 93 93 93 28
 28 28 30 30 30 30 49 49 65 65 65 65 65 65 84 84 84 84 84 93
 93 93 93 93 28 28 28 28 30 30 49 49 49 65 65 65 65 65 65 65
 84 84 84 84 93 93 93 93 93 28 28 28 17 30 49 49 49 49 65 65
 65 65 65 65 65 65 65 43 43 43 78 78 78 78 75 75 75 75 75 49
 49 49 49 65 65 65 65 65 65 65 65 65 51 43 78 78 78 78 78 75
 75 75 75 81 81 49 49 49 65 65 65 65 65 65 65 65 51 51 51 78
 78 92 78 78 78 75 75 81 81 81 12 12 12 65 65 65 65 65 65 65
 65 51 51 51 51 92 92 92 78 78 75 81 81 81 81 12 12 12 64 64
 64 64 65 64 64 64 51 51 51 51 78 92 78 78 78 78 81 42 81 12
 12 12 12 64 64 64 64 64 64 64 64 51 51 51 51 78 78 78 78 78
 78 78 42 42 12 12 12 12 12 64 64 64 64 64 64 64 64 51 51 78
 78 78 78 78 78 78 62 62 62 62 12 12 12 64 64 64 64 64 64 64
 64 64 51 78 78 63 63 63 78 78 62 62 62 62 62 62 62 62 64 64
 64 64 64 64 64 64 64 64 63 63 63 63 63 63 62 62 62 62 62 62
 62 62 62 62 64 64 64 64 64 64 64 64 64 63 63 63 63 63 62 62
 62 62 62 62 62 62 62 62 62 62 5 5 5 39 39 39 31 31 31 31
 15 15 15 15 62 62 62 62 62 62 62 62 62 62 5 5 5 5 39 39
 39 31 31 31 31 15 15 15 15 73 73 73 73 62 62 62 62 62 5 5
 5 5 5 39 39 39 39 31 31 31 15 15 15 15 73 73 73 73 73 62
 62 62 62 5 5 5 5 5 39 39 39 3 3 3 3 15 15 15 15 73
 73 73 73 73 62 62 62 62 5 5 5 5 5 18 39 39 3 3 3 3
 15 15 45 45 45 45 73 73 62 62 62 62 62 5 5 5 5 18 18 18
 18 18 3 3 3 27 27 45 45 45 45 45 45 62 62 62 62 62 5 40
 40 40 18 18 18 18 3 3 3 3 27 27 45 45 45 45 45 45 45 22
 22 22 22 22 40 40 40 40 84 84 18 3 3 3 3 27 27 45 45 45
 45 45 45 30 22 22 22 22 22 40 40 40 84 84 84 84 84 84 84 84
 20 20 20 45 45 45 45 30 30 22 22 22 22 22 40 84 84 84 84 84
 84 84 84 84 84 93 20 20 20 30 30 30 30 30 22 22 22 22 22 22
 84 84 84 84 84 84 84 84 84 93 93 93 93 93 30 30 30 30 30 30
 22 22 22 22 84 84 84 84 84 84 84 84 84 84 93 93 93 93 93 28
 28 30 30 30 30 30 22 22 65 65 65 65 84 84 84 84 84 84 84 93
 93 93 93 93 93 28 28 30 30 30 30 49 65 65 65 65 65 65 65 84
 84 84 84 93 93 93 93 93 93 93 28 28 30 30 30 49 49 65 65 65
 65 65 65 65 65 65 84 84 93 93 93 93 93 93 93 28 10 10 10 81
 49 49 65 65 65 65 65 65 65 65 65 65 84 78 78 78 78 78 78 78
 10 10 10 10 81 81 49 65 65 65 65 65 65 65 65 65 65 65 78 78
 78 78 78 78 78 81 81 81 81 81 81 81 65 65 65 65 65 65 65 65
 65 65 51 78 78 78 78 78 78 78 81 81 81 81 81 81 12 12 65 65
 65 65 65 65 65 65 51 51 78 78 78 78 78 78 78 81 81 81 81 81
 12 12 12 12 64 64 65 65 65 65 65 51 51 51 78 78 78 78 78 78
 78 81 81 81 81 12 12 12 12 64 64 64 64 64 64 64 51 51 78 78
 78 78 78 78 78 78 81 81 81 12 12 12 12 12 64 64 64 64 64 64
 64 64 51 78 78 78 78 78 78 78 78 78 62 62 62 12 12 12 12 64