# vtk DataFile Version 2.0
Data set from ImportExport Version 6.5.141.ec284b7a5
ASCII

DATASET RECTILINEAR_GRID
DIMENSIONS 26 26 26
X_COORDINATES 26 float
-3.000000 3.000000 9.000000 15.000000 21.000000 27.000000 33.000000 39.000000 45.000000 51.000000 57.000000 63.000000 69.000000 75.000000 81.000000 87.000000 93.000000 99.000000 105.000000 111.000000 117.000000 
123.000000 129.000000 135.000000 141.000000 147.000000 
Y_COORDINATES 26 float
-3.000000 3.000000 9.000000 15.000000 21.000000 27.000000 33.000000 39.000000 45.000000 51.000000 57.000000 63.000000 69.000000 75.000000 81.000000 87.000000 93.000000 99.000000 105.000000 111.000000 117.000000 
123.000000 129.000000 135.000000 141.000000 147.000000 
Z_COORDINATES 26 float
-3.000000 3.000000 9.000000 15.000000 21.000000 27.000000 33.000000 39.000000 45.000000 51.000000 57.000000 63.000000 69.000000 75.000000 81.000000 87.000000 93.000000 99.000000 105.000000 111.000000 117.000000 
123.000000 129.000000 135.000000 141.000000 147.000000 
CELL_DATA 15625
SCALARS FeatureIds int 1
LOOKUP_TABLE default
 42 42 42 42 42 42 42 20 20 20 20 20 20 20 76 76 76 76 76 76
 76 88 88 88 88 42 42 42 42 42 42 42 20 20 20 20 20 20 20 38
 38 76 76 76 76 88 88 88 88 88 42 42 42 42 42 42 42 20 20 20
 20 20 20 38 38 38 38 38 38 88 88 88 88 88 88 42 42 42 42 42
 42 42 72 20 20 20 20 20 38 38 38 38 38 32 88 88 88 88 88 88
 42 42 42 42 42 72 72 72 72 50 50 50 38 38 38 38 38 32 32 32
 32 88 88 88 88 61 61 72 72 72 72 72 72 72 50 50 50 69 69 69
 69 32 32 32 32 32 32 32 32 88 61 61 72 72 72 72 72 72 50 50
 50 69 69 69 69 69 32 32 32 32 32 32 32 32 32 61 34 34 34 34
 34 34 34 34 50 50 69 69 69 69 69 32 32 32 32 32 32 32 32 32
 61 34 34 34 34 34 34 34 34 34 69 69 69 69 69 69 32 32 32 32
 32 32 32 32 32 89 4 4 34 34 34 34 34 34 34 69 69 69 69 69
 69 32 32 32 32 32 32 32 32 32 89 60 22 22 4 34 34 34 34 34
 69 69 69 69 69 69 32 32 32 32 32 32 32 32 49 60 60 60 22 91
 91 91 34 34 34 82 69 69 69 69 74 74 74 32 32 32 32 49 49 49
 60 60 60 91 91 91 91 91 34 34 82 69 69 69 74 74 74 74 74 74
 74 49 49 49 49 60 60 60 91 91 91 91 91 67 67 2 2 2 2 74
 74 74 74 74 74 49 49 49 49 49 49 60 60 91 91 91 91 67 67 67
 2 2 2 2 95 95 74 74 74 74 49 49 49 49 49 49 49 60 91 91
 91 67 67 66 66 2 2 2 2 95 95 95 95 74 74 49 49 49 49 49
 49 49 49 56 56 67 67 67 66 66 66 2 2 95 95 95 95 95 95 97
 97 97 49 49 49 41 41 41 56 56 56 56 56 66 66 66 2 95 95 95
 95 95 95 95 97 97 97 97 49 49 41 41 41 56 56 56 56 56 56 56
 56 2 95 95 95 95 95 95 95 97 97 97 41 41 41 41 41 41 56 56
 56 56 56 56 56 56 95 95 95 95 95 95 95 95 16 16 41 41 41 41
 41 41 64 64 64 64 64 64 64 56 56 95 95 95 95 95 76 76 16 16
 41 41 41 41 41 41 41 64 64 64 64 64 64 64 64 56 76 76 76 76
 76 76 76 76 16 41 41 41 41 41 41 41 64 64 64 64 64 64 64 64
 20 20 76 76 76 76 76 76 76 79 41 41 41 41 41 41 41 64 64 64
 64 64 64 64 20 20 20 20 76 76 76 76 76 76 79 79 41 41 41 41
 41 64 64 64 64 64 64 64 20 20 20 20 20 76 76 76 76 76 76 79
 79 41 41 41 41 64 64 64 42 42 42 42 20 20 20 20 20 20 20 76
 76 76 76 76 76 55 55 55 55 55 42 42 42 42 42 42 42 42 20 20
 20 20 20 38 38 38 38 38 76 76 55 55 55 55 55 42 42 42 42 42
 42 42 42 20 20 20 20 20 38 38 38 38 38 38 61 61 88 88 88 88
 42 42 42 42 42 42 42 72 20 20 20 20 38 38 38 38 38 38 61 61
 61 61 61 61 61 61 42 42 42 72 72 72 72 72 50 50 50 38 38 38
 38 38 38 61 61 61 61 61 61 61 61 61 72 72 72 72 72 72 72 50
 50 50 69 38 38 38 38 32 32 61 61 61 61 61 61 61 61 72 72 72
 72 72 72 50 50 50 50 69 69 69 38 38 32 32 32 61 61 61 61 61
 61 61 34 34 34 72 72 72 50 50 50 50 69 69 69 69 32 32 32 32
 32 61 61 61 61 61 4 4 4 34 34 34 34 34 34 69 69 69 69 69
 69 32 32 32 32 32 32 61 61 61 89 4 4 4 4 34 34 34 34 34
 69 69 69 69 69 69 32 32 32 32 32 32 61 61 61 89 89 22 22 4
 4 4 34 34 82 82 69 69 69 69 69 74 32 32 32 32 32 61 49 49
 60 60 22 22 4 91 91 34 82 82 82 29 29 29 74 74 74 74 74 74
 32 49 49 49 49 60 60 60 22 91 91 91 91 91 82 82 29 29 29 74
 74 74 74 74 74 74 49 49 49 49 60 60 60 91 91 91 91 91 91 91
 29 29 29 29 74 74 74 74 74 74 49 49 49 49 49 49 60 60 91 91
 91 91 91 67 66 66 2 2 95 95 95 74 74 74 74 49 49 49 49 49
 49 49 60 91 91 91 91 66 66 66 66 2 2 95 95 95 95 74 74 74
 49 49 49 49 49 49 49 49 56 56 56 56 66 66 66 66 2 95 95 95
 95 95 95 95 97 97 97 49 49 49 49 49 56 56 56 56 56 56 66 66
 66 95 95 95 95 95 95 95 95 97 97 97 97 49 49 41 41 56 56 56
 56 56 56 56 56 56 95 95 95 95 95 95 95 95 97 97 97 97 41 41
 41 41 56 56 56 56 56 56 56 56 56 95 95 95 95 95 95 95 95 97
 97 97 41 41 41 41 41 64 64 56 56 56 56 56 56 56 95 14 14 14
 14 76 76 76 16 41 41 41 41 41 41 41 64 64 64 64 64 64 64 64
 56 76 76 76 76 76 76 76 76 16 41 41 41 41 41 41 41 64 64 64
 64 64 64 64 64 20 20 76 76 76 76 76 76 76 76 41 41 41 41 41
 41 64 64 64 64 64 64 64 64 20 20 20 20 76 76 76 76 76 76 76
 41 41 41 41 41 41 64 64 64 64 64 64 64 20 20 20 20 20 76 76
 76 76 76 76 76 41 41 41 41 41 64 64 64 64 64 64 64 64 20 20
 20 20 20 38 38 76 76 76 76 55 55 55 55 55 55 64 64 64 42 42
 42 42 42 20 20 20 20 20 38 38 38 38 38 38 55 55 55 55 55 55
 42 42 42 42 42 42 42 42 20 20 20 20 20 38 38 38 38 38 38 61
 61 55 55 55 55 42 42 42 42 42 42 42 72 20 20 20 20 38 38 38
 38 38 38 61 61 61 61 61 61 61 61 42 42 42 42 72 72 72 50 50
 50 50 38 38 38 38 38 38 61 61 61 61 61 61 61 61 61 72 72 72
 72 72 72 72 50 50 50 38 38 38 38 38 38 61 61 61 61 61 61 61
 61 61 61 72 72 72 72 72 72 50 50 50 38 38 38 38 38 38 61 61
 61 61 61 61 61 61 61 4 4 72 72 72 72 72 50 50 50 69 69 69
 69 32 32 61 61 61 61 61 61 61 61 4 4 4 4 4 72 72 82 82
 82 82 82 69 69 69 32 32 61 61 61 61 61 61 61 89 4 4 4 4
 4 4 82 82 82 82 82 82 69 69 69 74 32 32 32 32 61 61 61 61
 89 89 22 22 22 4 4 82 82 82 82 82 82 29 29 74 74 74 74 74
 32 61 61 61 61 89 89 22 22 22 4 4 82 82 82 82 82 29 29 29
 74 74 74 74 74 74 49 49 49 49 89 89 22 22 22 91 91 91 82 82
 82 29 29 29 29 74 74 74 74 74 49 49 49 49 49 49 60 4 4 91
 91 91 91 91 82 29 29 29 29 29 74 74 74 74 74 49 49 49 49 49
 49 49 4 4 91 91 91 91 66 66 29 29 29 29 29 74 74 74 74 74
 49 49 49 49 49 49 49 49 4 91 91 91 66 66 66 66 29 29 95 95
 74 74 74 74 74 49 49 49 49 49 49 49 49 56 56 56 56 56 66 66
 66 2 95 95 95 95 95 95 74 97 97 97 49 49 49 49 49 56 56 56
 56 56 56 56 66 66 95 95 95 95 95 95 95 95 97 97 97 97 49 49
 73 73 56 56 56 56 56 56 56 56 56 95 95 95 95 95 95 95 95 97
 97 97 97 73 73 41 41 56 56 56 56 56 56 56 56 56 63 14 14 14
 14 14 14 14 97 97 97 73 73 73 41 41 64 56 56 56 56 56 56 56
 63 63 14 14 14 14 14 14 76 97 41 41 41 41 41 41 41 64 64 64
 64 64 64 64 64 63 63 14 14 14 76 76 76 76 76 41 41 41 41 41
 41 64 64 64 64 64 64 64 64 64 64 63 76 76 76 76 76 76 76 76
 41 41 41 41 41 41 64 64 64 64 64 64 64 64 64 20 20 20 76 76
 76 76 76 76 76 41 41 41 41 41 41 64 64 64 64 64 64 64 64 20
 20 20 20 76 76 76 76 76 76 76 41 41 41 41 41 64 64 64 64 64
 64 64 64 20 20 20 20 20 38 38 38 38 38 38 55 55 55 55 55 55
 64 64 64 64 64 64 64 64 20 20 20 20 20 38 38 38 38 38 38 55
 55 55 55 55 55 42 42 42 42 42 42 42 42 20 20 20 20 38 38 38
 38 38 38 38 61 55 55 55 55 55 61 42 42 42 42 42 42 42 20 20
 20 20 38 38 38 38 38 38 61 61 61 61 61 61 61 61 61 84 84 42
 72 72 72 50 50 50 50 38 38 38 38 38 38 61 61 61 61 61 61 61
 61 61 84 84 72 72 72 72 72 50 50 50 38 38 38 38 38 38 61 61
 61 61 61 61 61 61 61 92 92 72 72 72 72 72 50 50 50 38 38 38
 38 38 61 61 61 61 61 61 61 61 61 61 4 4 4 72 72 72 82 82
 82 82 82 69 69 69 38 61 61 61 61 61 61 61 61 61 4 4 4 4
 4 82 82 82 82 82 82 82 82 69 69 32 61 61 61 61 61 61 61 61
 89 4 4 4 4 4 4 82 82 82 82 82 82 82 29 74 74 74 32 61
 61 61 61 61 61 89 89 22 22 4 4 4 82 82 82 82 82 82 29 29
 74 74 74 74 74 61 61 61 61 61 89 89 22 22 22 4 4 82 82 82
 82 82 29 29 29 74 74 74 74 74 74 49 49 49 49 89 89 4 22 4
 4 4 82 82 82 82 29 29 29 29 74 74 74 74 74 49 49 49 49 49
 49 4 4 4 4 4 4 4 82 82 29 29 29 29 29 74 74 74 74 74
 49 49 49 49 49 49 49 4 4 4 4 4 4 66 29 29 29 29 29 29
 74 74 74 74 74 49 49 49 49 49 49 49 4 4 4 4 56 56 66 66
 66 29 29 29 29 74 74 74 74 74 49 49 49 49 49 49 49 49 56 56
 56 56 56 56 66 66 23 29 95 95 95 95 74 74 97 97 49 49 49 49
 49 49 56 56 56 56 56 56 56 56 23 23 95 95 95 95 95 95 74 97
 97 97 49 49 49 73 49 56 56 56 56 56 56 56 56 23 23 14 14 14
 14 14 14 14 97 97 97 73 73 73 73 41 56 56 56 56 56 56 56 56
 63 63 14 14 14 14 14 14 14 97 97 97 73 73 73 41 41 56 56 56
 56 56 56 56 56 63 63 63 14 14 14 14 14 14 97 41 41 73 73 73
 41 64 64 64 64 64 64 64 64 64 63 63 63 14 14 14 76 76 76 41
 41 41 41 41 41 41 64 64 64 64 64 64 64 64 64 64 63 63 18 76
 76 76 76 76 76 41 41 41 41 41 41 64 64 64 64 64 64 64 64 64
 20 20 18 18 76 76 76 76 76 76 41 41 41 41 41 41 64 64 64 64
 64 64 64 64 20 20 20 20 18 76 76 76 76 76 55 55 55 55 41 41
 64 64 64 64 64 64 64 64 64 20 20 20 20 38 38 38 38 38 55 55
 55 55 55 55 55 64 64 64 64 64 64 64 64 64 20 20 20 38 38 38
 38 38 38 55 55 55 55 55 55 55 61 64 64 64 64 64 64 64 20 20
 20 20 38 38 38 38 38 38 61 55 55 55 55 55 55 61 61 64 64 42
 42 42 42 20 20 20 38 38 38 38 38 38 38 61 61 61 61 61 61 61
 61 61 84 84 84 72 72 72 50 50 50 38 38 38 38 38 38 38 61 61
 61 61 61 61 61 61 61 84 84 92 92 72 72 72 50 50 50 38 38 38
 38 38 61 61 61 61 61 61 61 61 61 61 92 92 92 92 72 72 82 82
 82 82 82 38 38 38 38 61 61 61 61 61 61 61 61 61 61 4 92 92
 92 82 82 82 82 82 82 82 38 38 38 93 61 61 61 61 61 61 61 61
 61 4 4 4 94 94 94 82 82 82 82 82 82 82 82 93 93 93 61 61
 61 61 61 61 61 4 4 4 4 4 94 94 82 82 82 82 82 82 82 29
 93 93 93 61 61 61 61 61 61 61 89 4 4 4 4 4 94 82 82 82
 82 82 82 29 29 93 93 93 93 61 61 61 61 61 61 89 89 4 4 4
 4 4 82 82 82 82 82 29 29 29 29 74 74 74 74 74 49 49 49 49
 4 4 4 4 4 4 4 82 82 82 82 29 29 29 29 29 74 74 74 74
 74 49 49 49 49 49 4 4 4 4 4 4 82 82 82 29 29 29 29 29
 29 74 74 74 74 49 49 49 49 49 49 4 4 4 4 4 4 43 43 29
 29 29 29 29 29 29 74 74 74 74 49 49 49 49 49 49 49 4 4 4
 4 56 56 43 43 29 29 29 29 29 29 74 74 74 74 49 49 49 49 49
 49 49 4 56 56 56 56 56 56 43 23 23 29 29 29 29 95 74 74 97
 49 49 49 49 49 49 49 56 56 56 56 56 56 56 56 23 23 23 14 14
 14 14 14 97 97 97 97 49 49 49 73 49 56 56 56 56 56 56 56 63
 23 23 23 14 14 14 14 14 14 97 97 97 73 73 73 73 73 56 56 56
 56 56 56 56 63 63 63 63 14 14 14 14 14 14 97 97 73 73 73 73
 73 41 56 56 56 56 56 56 64 63 63 63 63 63 14 14 14 14 14 97
 41 73 73 73 73 41 64 64 64 64 13 64 64 64 63 63 63 63 63 14
 14 14 76 76 41 41 41 41 41 73 41 64 64 64 64 64 64 64 64 64
 63 63 63 18 18 76 76 76 76 76 41 41 41 41 41 41 64 64 64 64
 64 64 64 64 64 63 63 18 18 18 76 76 76 76 55 55 55 55 41 41
 64 64 64 64 64 64 64 64 64 64 63 63 18 18 18 76 76 76 76 55
 55 55 55 55 41 64 64 64 64 64 64 64 64 64 64 20 63 59 18 59
 38 38 38 55 55 55 55 55 55 55 64 64 64 64 64 64 64 64 64 64
 20 59 59 59 38 38 38 38 55 55 55 55 55 55 55 61 64 64 64 64
 64 64 64 64 20 59 59 59 59 38 38 38 38 61 55 55 55 55 55 55
 61 61 64 64 64 64 64 64 64 20 59 59 59 59 38 38 38 38 61 61
 61 61 61 61 61 61 61 84 84 84 92 92 72 50 50 59 59 59 59 38
 38 38 61 61 61 61 61 61 61 61 61 61 84 84 92 92 92 72 82 50
 59 59 59 59 38 38 38 61 61 61 61 61 61 61 61 61 61 84 92 92
 92 82 82 82 82 82 82 59 59 38 38 38 61 61 61 61 61 61 61 61
 61 4 4 92 92 92 82 82 82 82 82 82 82 59 38 93 93 61 61 61
 61 61 61 61 61 61 4 4 4 94 94 94 82 82 82 82 82 82 82 93
 93 93 93 93 61 61 61 61 61 61 4 4 4 4 94 94 94 82 82 82
 82 82 82 82 93 93 93 93 93 93 61 61 61 61 61 4 4 4 4 4
 94 94 82 82 82 82 82 82 29 29 93 93 93 93 93 93 61 61 61 61
 4 4 4 4 4 4 4 82 82 82 82 82 29 29 29 93 93 93 93 93
 93 93 49 49 49 4 4 4 4 4 4 4 82 82 82 82 29 29 29 29
 29 93 93 93 93 93 93 49 49 49 4 4 4 4 4 4 4 82 43 43
 29 29 29 29 29 29 74 74 74 74 93 49 49 49 49 49 4 4 4 4
 4 4 43 43 43 29 29 29 29 29 29 74 74 74 74 49 49 49 49 49
 49 49 4 4 4 4 43 43 43 43 43 29 29 29 29 29 74 74 74 74
 49 49 49 49 49 49 49 4 56 56 56 56 43 43 43 23 23 23 29 29
 29 74 74 74 74 49 49 49 49 49 49 49 56 56 56 56 56 56 43 43
 23 23 23 29 14 14 14 14 97 97 97 49 49 49 49 52 56 56 56 56
 56 56 56 51 63 63 23 23 14 14 14 14 14 14 97 52 52 52 73 52
 52 52 56 56 56 56 56 56 51 63 63 63 63 63 14 14 14 14 14 97
 52 52 73 73 73 52 56 56 56 13 13 13 51 51 63 63 63 63 63 63
 14 14 14 14 97 52 73 73 73 73 41 64 64 64 13 13 13 64 64 63
 63 63 63 63 63 14 14 76 76 41 41 41 41 41 73 41 64 64 64 64
 13 64 64 64 63 63 63 63 18 18 18 76 76 76 55 55 41 41 41 41
 64 64 64 64 64 64 64 64 64 63 63 63 18 18 18 18 76 76 55 55
 55 55 55 55 41 64 64 64 64 64 64 64 64 64 64 63 63 18 18 18
 18 76 76 55 55 55 55 55 55 55 64 64 64 64 64 64 64 64 64 64
 63 63 59 59 59 59 59 38 55 55 55 55 55 55 55 64 64 64 64 64
 64 64 64 64 64 59 59 59 59 59 59 59 38 55 55 55 55 55 55 55
 61 64 64 64 64 64 64 64 64 59 59 59 59 59 59 59 38 38 61 55
 55 55 55 55 55 61 61 64 64 64 64 64 64 30 59 59 59 59 59 59
 59 38 61 61 61 61 61 61 61 61 61 61 84 84 92 92 64 30 30 30
 59 59 59 59 59 59 38 61 61 61 61 61 61 61 61 61 61 84 84 92
 92 92 30 30 30 30 59 59 59 59 59 38 61 61 61 61 61 61 61 61
 61 61 92 92 92 92 82 30 30 30 30 30 59 59 59 59 61 61 61 61
 61 61 61 61 61 61 61 4 92 92 94 94 82 82 82 82 82 30 59 59
 93 93 61 61 61 61 61 61 61 61 61 4 4 4 94 94 94 82 82 82
 82 82 82 59 93 93 93 93 93 61 61 61 61 61 61 4 4 4 4 4
 94 94 82 82 82 82 82 82 82 93 93 93 93 93 93 61 61 61 61 61
 4 4 4 4 4 94 94 82 82 82 82 82 82 29 93 93 93 93 93 93
 93 61 61 61 61 4 4 4 4 4 4 4 82 82 82 82 82 29 29 29
 93 93 93 93 93 93 93 61 49 61 4 4 4 4 4 4 4 82 82 82
 82 29 29 29 29 93 93 93 93 93 93 93 49 49 49 4 4 4 4 4
 4 4 43 43 43 29 29 29 29 29 29 93 93 93 93 93 49 49 49 49
 4 4 4 4 4 4 43 43 43 43 43 29 29 29 29 29 93 93 93 93
 93 49 49 49 49 49 49 4 4 4 43 43 43 43 43 43 29 29 29 29
 29 74 74 74 93 49 49 49 49 49 49 49 4 4 56 56 43 43 43 43
 43 43 29 29 29 29 74 74 74 93 49 49 49 49 49 52 52 56 56 56
 56 51 43 43 43 43 23 23 29 63 14 14 14 52 52 52 52 52 52 52
 52 52 56 56 56 51 51 51 51 51 63 63 63 63 63 14 14 14 52 52
 52 52 52 52 52 52 52 56 56 56 51 51 51 51 63 63 63 63 63 63
 14 14 14 52 52 52 52 52 52 52 52 52 56 13 13 13 13 51 51 63
 63 63 63 63 63 14 14 14 52 52 52 52 52 52 52 52 52 64 13 13
 13 13 51 63 63 63 63 63 63 63 63 63 17 17 52 52 52 52 52 52
 52 64 64 64 13 13 13 64 63 63 63 63 63 63 18 18 18 17 17 55
 55 52 52 52 52 64 64 64 64 64 64 64 64 64 63 63 63 63 18 18
 18 76 17 55 55 55 55 55 55 52 64 64 64 64 64 64 64 64 64 63
 63 63 63 18 18 18 18 55 55 55 55 55 55 55 55 64 64 64 64 62
 62 62 64 64 63 63 63 59 59 59 59 59 59 55 55 55 55 55 55 55
 62 62 62 62 62 62 62 62 62 59 59 59 59 59 59 59 59 59 55 55
 55 55 55 55 55 61 62 62 62 62 62 62 62 62 59 59 59 59 59 59
 59 59 59 61 61 55 55 55 55 55 61 61 62 62 62 62 62 62 30 30
 59 59 59 59 59 59 59 61 61 61 61 61 61 61 61 61 61 61 84 92
 77 30 30 30 30 59 59 59 59 59 59 59 61 61 61 61 61 61 61 61
 61 61 84 84 92 77 30 30 30 30 30 59 59 59 59 59 59 61 61 61
 61 61 61 61 61 61 61 92 92 92 77 30 30 30 30 30 30 30 59 59
 59 59 61 61 61 61 61 61 61 61 61 61 4 92 77 77 77 30 30 30
 30 30 30 59 59 59 93 33 33 61 61 61 61 61 61 61 4 4 4 4
 77 30 82 30 30 30 30 30 30 93 93 93 93 93 93 61 61 61 61 61
 4 4 4 4 4 4 30 82 82 82 82 82 82 82 93 93 93 93 93 93
 93 61 61 61 61 4 4 4 4 4 4 82 82 82 82 82 82 82 29 93
 93 93 93 93 93 93 61 61 61 61 4 4 4 4 4 4 4 82 82 82
 82 82 29 29 93 93 93 93 93 93 93 93 61 61 61 4 4 4 4 4
 4 4 43 43 43 43 29 29 29 29 93 93 93 93 93 93 93 93 49 49
 4 4 4 4 4 4 43 43 43 43 43 29 29 29 29 93 93 93 93 93
 93 93 49 49 49 4 4 4 4 4 43 43 43 43 43 43 43 29 29 29
 29 93 93 93 93 93 49 49 49 49 49 4 4 4 4 43 43 43 43 43
 43 43 43 29 29 29 93 93 93 93 93 49 52 52 52 52 52 4 4 43
 43 43 43 43 43 43 43 43 29 29 29 93 93 93 52 52 52 52 52 52
 52 52 52 51 51 51 51 51 43 43 43 43 43 43 63 63 85 85 52 52
 52 52 52 52 52 52 52 52 51 51 51 51 51 51 51 63 63 63 63 63
 63 14 85 52 52 52 52 52 52 52 52 52 52 51 51 51 51 51 51 51
 63 63 63 63 63 63 14 85 52 52 52 52 52 52 52 52 52 52 51 51
 51 51 51 51 63 63 63 63 63 63 63 17 17 17 52 52 52 52 52 52
 52 52 64 51 51 51 51 51 51 63 63 63 63 63 63 63 17 17 17 52
 52 52 52 52 52 52 52 64 64 64 13 51 51 63 63 63 63 63 63 63
 63 17 17 17 17 52 52 52 52 52 52 52 64 64 64 64 64 64 63 63
 63 63 63 63 63 63 17 17 17 17 55 55 55 52 52 52 64 64 64 64
 64 64 64 63 63 63 63 63 63 59 59 59 17 17 55 55 55 55 55 55
 53 53 62 62 62 62 62 62 62 63 63 59 59 59 59 59 59 59 17 55
 55 55 55 55 55 53 53 62 62 62 62 62 62 62 59 59 59 59 59 59
 59 59 59 55 55 55 55 55 55 55 53 53 62 62 62 62 62 62 62 59
 59 59 59 59 59 59 59 59 61 61 61 61 61 61 61 61 61 62 62 62
 62 62 62 30 30 59 59 59 59 59 59 59 59 61 61 61 61 61 61 61
 61 61 61 62 62 77 30 30 30 30 59 59 59 59 59 59 59 59 61 61
 61 61 61 61 61 61 61 77 77 77 77 30 30 30 30 30 59 59 59 59
 59 59 33 33 61 61 61 61 61 61 61 61 77 77 77 77 30 30 30 30
 30 30 59 59 59 59 33 33 33 33 61 61 61 61 61 61 61 77 77 77
 77 30 30 30 30 30 30 30 59 59 59 33 33 33 33 33 61 61 61 61
 61 4 4 77 77 77 30 30 30 30 30 30 30 30 93 93 93 93 33 33
 33 61 61 61 61 4 4 4 4 77 77 77 30 30 30 30 30 30 30 93
 93 93 93 93 93 33 61 61 61 61 4 4 4 4 4 77 77 30 30 30
 30 30 30 29 93 93 93 93 93 93 93 93 61 61 61 4 4 4 4 4
 77 77 43 43 43 43 43 29 29 93 93 93 93 93 93 93 93 93 61 58
 4 4 4 4 4 4 43 43 43 43 43 43 29 29 93 93 93 93 93 93
 93 93 9 9 9 4 4 4 4 4 43 43 43 43 43 43 43 43 29 29
 93 93 93 93 93 93 9 9 9 9 9 4 4 4 4 43 43 43 43 43
 43 43 43 29 29 29 93 93 93 93 93 9 52 52 52 52 4 4 4 43
 43 43 43 43 43 43 43 43 43 29 29 93 93 93 93 52 52 52 52 52
 52 52 52 43 43 43 43 43 43 43 43 43 43 43 43 85 85 85 85 52
 52 52 52 52 52 52 52 52 51 51 51 51 51 43 43 43 43 43 43 43
 85 85 85 85 52 52 52 52 52 52 52 52 52 51 51 51 51 51 51 51
 43 63 63 63 63 85 85 85 52 52 52 52 52 52 52 52 52 52 51 51
 51 51 51 51 51 63 63 63 63 63 63 85 85 52 52 52 52 52 52 52
 52 52 52 51 51 51 51 51 51 51 63 63 63 63 63 63 17 17 17 52
 52 52 52 52 52 52 52 52 51 51 51 51 51 51 63 63 63 63 63 63
 17 17 17 17 52 52 52 52 52 52 52 52 52 51 51 51 51 51 63 63
 63 63 63 63 63 17 17 17 17 17 52 52 52 52 52 52 52 64 64 64
 64 64 64 63 63 63 63 63 63 63 17 17 17 17 17 17 52 52 52 52
 52 52 64 64 62 62 62 62 63 63 63 63 63 59 59 59 17 17 17 17
 55 55 55 55 52 53 53 62 62 62 62 62 62 62 62 59 59 59 59 59
 59 59 17 17 17 55 55 55 26 26 53 53 62 62 62 62 62 62 62 62
 59 59 59 59 59 59 59 59 17 17 55 55 55 26 26 53 53 62 62 62
 62 62 62 62 59 59 59 59 59 59 59 59 59 61 61 61 61 61 61 61
 53 53 62 62 62 62 62 62 30 30 59 59 59 59 59 59 59 59 61 61
 61 61 61 61 61 61 61 61 77 77 77 30 30 30 30 59 59 59 59 59
 59 59 33 33 61 61 61 61 61 61 61 71 71 77 77 77 30 30 30 30
 30 59 59 59 59 59 59 33 33 33 33 61 61 61 61 61 71 71 77 77
 77 77 30 30 30 30 30 59 59 59 59 33 33 33 33 33 33 61 61 61
 61 71 71 71 77 77 77 30 30 30 30 30 30 59 59 59 33 33 33 33
 33 33 61 61 61 77 77 77 77 77 77 77 30 30 30 30 30 30 30 59
 93 33 33 33 33 33 33 33 61 61 58 58 77 77 77 77 77 30 30 30
 30 30 30 30 93 93 93 93 33 33 33 33 33 61 61 58 58 58 77 77
 77 77 30 30 30 30 30 30 93 93 93 93 93 93 93 93 33 33 61 58
 58 58 58 4 77 77 77 77 43 43 43 43 43 29 93 93 93 93 93 93
 93 93 9 9 58 58 58 4 4 77 77 43 43 43 43 43 43 43 43 93
 93 93 93 93 93 93 93 9 9 9 9 58 4 4 4 43 43 43 43 43
 43 43 43 43 29 93 93 93 93 93 93 9 9 9 9 9 9 4 4 43
 43 43 43 43 43 43 43 43 43 29 93 93 93 93 9 9 9 9 9 9
 9 9 9 43 43 43 43 43 43 43 43 43 43 43 43 85 85 85 85 85
 9 9 9 9 9 52 52 52 43 43 43 43 43 43 43 43 43 43 43 43
 85 85 85 85 85 52 52 52 52 52 52 52 52 51 51 51 51 51 43 43
 43 43 43 43 43 85 85 85 85 85 52 52 52 52 52 52 52 52 51 51
 51 51 51 51 51 51 43 63 63 63 85 85 85 85 52 52 52 52 52 52
 52 52 52 51 51 51 51 51 51 51 51 63 63 63 63 85 85 85 85 52
 52 52 52 52 52 52 52 52 51 51 51 51 51 51 51 63 63 63 63 63
 17 17 17 17 52 52 52 52 52 52 52 52 52 51 51 51 51 51 51 63
 63 63 63 63 63 17 17 17 17 52 52 52 52 52 52 52 52 52 51 51
 51 51 51 51 63 63 63 63 63 63 17 17 17 17 17 52 52 52 52 52
 52 52 52 51 51 64 51 51 63 63 63 63 63 63 59 17 17 17 17 17
 17 52 52 52 52 52 52 62 62 62 62 62 62 63 63 63 63 63 59 59
 59 17 17 17 17 17 52 52 52 52 53 53 62 62 62 62 62 62 62 59
 59 59 59 59 59 59 17 17 17 17 17 26 26 26 26 53 53 62 62 62
 62 62 62 62 59 59 59 59 59 59 59 59 17 17 17 17 26 26 26 26
 53 53 62 62 62 62 62 62 62 59 59 59 59 59 59 59 59 59 17 61
 61 61 26 26 26 53 53 62 62 62 62 62 62 30 30 59 59 59 59 59
 59 59 59 59 61 61 61 61 61 61 71 71 71 77 77 77 77 30 30 30
 59 59 59 59 59 59 59 33 33 33 33 61 61 61 61 71 71 71 71 77
 77 77 30 30 30 30 59 59 59 59 59 33 33 33 33 33 33 33 61 61
 71 71 71 71 77 77 77 30 30 30 30 30 59 59 59 59 33 33 33 33
 33 33 33 61 61 71 71 71 71 77 77 77 30 30 30 30 30 30 59 59
 33 33 33 33 33 33 33 33 33 61 71 71 71 71 77 77 77 77 30 30
 30 30 30 30 59 33 33 33 33 33 33 33 33 33 61 58 58 77 77 77
 77 77 77 30 30 30 30 30 30 93 93 33 33 33 33 33 33 33 33 58
 58 58 58 77 77 77 77 77 30 30 30 30 30 30 93 93 65 65 33 33
 33 33 33 33 58 58 58 58 77 77 77 77 77 43 43 43 43 43 43 93
 93 65 65 65 93 93 9 9 9 58 58 58 58 77 77 77 77 43 43 43
 43 43 43 43 7 93 65 65 65 93 9 9 9 9 9 9 58 58 77 77
 43 43 43 43 43 43 43 43 43 43 93 93 65 65 9 9 9 9 9 9
 9 9 9 9 43 43 43 43 43 43 43 43 43 43 43 85 85 85 85 9
 9 9 9 9 9 9 9 9 9 43 43 43 43 43 43 43 43 43 43 43
 85 85 85 85 85 9 9 9 9 9 9 9 9 9 43 43 43 43 43 43
 43 43 43 43 43 85 85 85 85 85 9 9 9 9 9 52 52 52 51 51
 51 51 51 51 43 43 43 43 43 43 85 85 85 85 85 52 52 52 52 52
 52 52 52 51 51 51 51 51 51 51 51 43 43 43 85 85 85 85 85 85
 52 52 52 52 52 52 52 52 51 51 51 51 51 51 51 51 63 63 63 63
 85 85 85 85 52 52 52 52 52 52 52 52 52 51 51 51 51 51 51 51
 51 63 63 63 63 17 17 17 17 52 52 52 52 52 52 52 52 52 51 51
 51 51 51 51 51 63 63 63 63 63 17 17 17 17 17 52 52 52 52 52
 52 52 52 51 51 51 51 51 51 63 63 63 63 63 17 17 17 17 17 17
 17 52 52 52 52 52 52 52 96 51 51 51 51 63 63 63 63 63 63 17
 17 17 17 17 17 17 52 52 52 52 52 52 62 62 62 62 62 62 63 63
 63 63 59 59 59 17 17 17 17 17 17 17 52 52 52 86 86 62 62 62
 62 62 62 96 59 59 59 59 59 59 17 17 17 17 17 17 26 26 26 26
 86 86 62 62 62 62 62 62 62 59 59 59 59 59 59 59 59 17 17 17
 17 26 26 26 26 86 86 62 62 62 62 62 62 62 59 59 59 59 59 59
 59 59 59 17 17 33 26 26 26 26 86 86 62 62 62 62 62 30 30 30
 59 59 59 59 59 59 59 59 33 33 33 33 26 26 26 71 71 77 77 77
 77 77 30 30 30 59 59 59 59 59 59 59 33 33 33 33 33 33 33 26
 71 71 71 71 77 77 77 77 30 30 30 59 59 59 59 59 33 33 33 33
 33 33 33 33 61 71 71 71 71 77 77 77 77 30 30 30 30 59 59 59
 59 33 33 33 33 33 33 33 33 33 71 71 71 71 71 77 77 77 30 30
 30 30 30 59 59 33 33 33 33 33 33 33 33 33 33 71 71 71 71 77
 77 77 77 30 30 30 30 30 30 59 33 33 33 33 33 33 33 33 33 33
 58 58 71 77 77 77 77 77 77 30 30 30 30 30 59 33 33 33 33 33
 33 33 33 33 58 58 58 58 77 77 77 77 77 77 30 30 30 30 7 93
 65 65 65 65 33 33 33 33 9 58 58 58 58 58 77 77 77 77 77 43
 43 43 43 7 7 93 65 65 65 93 9 9 9 9 58 58 58 58 58 77
 77 77 43 43 43 43 43 43 7 7 93 65 65 65 9 9 9 9 9 9
 9 58 58 58 77 43 43 43 43 43 43 43 43 7 7 93 65 65 65 9
 9 9 9 9 9 9 9 9 9 43 43 43 43 43 43 43 43 43 7 43
 85 85 85 85 9 9 9 9 9 9 9 9 9 9 43 43 43 43 43 43
 43 43 43 43 43 85 85 85 85 9 9 9 9 9 9 9 9 9 9 43
 43 43 43 43 43 43 43 43 43 47 85 85 85 85 85 9 9 9 9 9
 9 9 9 9 51 51 51 51 51 43 43 43 43 43 47 85 85 85 85 85
 9 9 9 9 9 52 52 52 51 51 51 51 51 51 51 51 43 43 43 47
 85 85 85 85 85 9 52 52 52 52 52 52 52 51 51 51 51 51 51 51
 51 51 63 63 85 85 85 85 85 85 85 52 52 52 52 52 52 52 51 51
 51 51 51 51 51 51 51 63 63 63 17 17 17 17 17 52 52 52 52 52
 52 52 52 51 51 51 51 51 51 51 51 63 63 63 17 17 17 17 17 17
 52 52 52 52 52 52 52 52 96 96 96 96 96 51 63 63 63 63 63 17
 17 17 17 17 17 17 52 52 52 52 52 52 96 96 96 96 96 96 96 63
 63 63 63 63 17 17 17 17 17 17 17 52 52 52 52 52 52 96 96 96
 96 96 96 96 63 63 63 59 59 59 17 17 17 17 17 17 17 52 52 52
 86 86 96 96 96 96 96 96 96 96 59 59 59 59 59 17 17 17 17 17
 17 26 26 26 26 86 86 86 96 96 96 96 96 96 59 59 59 59 59 59
 59 17 17 17 17 17 26 26 26 26 86 86 86 62 62 96 96 96 96 59
 59 59 59 59 59 59 59 17 17 17 33 26 26 26 26 86 86 86 62 77
 62 77 77 30 59 59 59 59 59 59 59 59 59 33 33 33 33 26 26 26
 71 71 71 77 77 77 77 77 30 30 59 59 59 59 59 59 59 33 33 33
 33 33 33 5 5 71 71 71 71 77 77 77 77 30 30 30 59 59 59 59
 59 33 33 33 33 33 33 33 33 5 71 71 71 71 77 77 77 77 30 30
 30 30 59 59 59 59 33 33 33 33 33 33 33 33 33 71 71 71 71 77
 77 77 77 77 30 30 30 59 59 59 33 33 33 33 33 33 33 33 33 33
 71 71 71 71 77 77 77 77 77 30 30 30 30 1 1 33 33 33 33 33
 33 33 33 33 33 58 58 77 77 77 77 77 77 77 30 30 30 30 1 1
 33 33 33 33 33 33 33 33 33 33 58 58 58 77 77 77 77 77 77 77
 30 30 7 7 7 65 65 65 65 33 33 33 9 9 9 58 58 58 77 77
 77 77 77 77 77 43 43 7 7 7 7 65 65 65 9 9 9 9 9 9
 58 58 58 58 77 77 77 77 43 43 43 43 7 7 7 7 65 65 65 9
 9 9 9 9 9 9 9 9 9 77 12 12 43 43 43 43 43 7 7 7
 7 65 65 65 9 9 9 9 9 9 9 9 9 9 77 43 43 43 43 43
 43 43 7 7 7 7 47 47 47 9 9 9 9 9 9 9 9 9 9 9
 43 43 43 43 43 43 43 43 43 47 47 47 47 47 9 9 9 9 9 9
 9 9 9 9 9 43 43 43 43 43 43 43 43 43 47 47 47 47 47 47
 9 9 9 9 9 9 9 9 9 51 51 51 51 51 51 43 43 43 47 47
 47 47 47 47 47 9 9 9 9 9 9 9 9 9 51 51 51 51 51 51
 51 43 43 47 47 47 47 47 47 47 9 9 9 9 9 52 52 9 51 51
 51 51 51 51 51 51 51 63 47 47 47 47 47 47 47 9 52 52 52 52
 52 52 52 96 96 51 51 51 51 51 51 51 63 63 47 47 47 17 17 17
 17 52 52 52 52 52 52 96 96 96 96 96 96 51 51 51 63 63 17 17
 17 17 17 17 17 52 52 52 52 52 52 52 96 96 96 96 96 96 96 96
 63 63 63 17 17 17 17 17 17 45 45 52 52 52 52 52 96 96 96 96
 96 96 96 96 96 6 6 6 17 17 17 17 17 17 45 45 45 52 52 52
 96 96 96 96 96 96 96 96 96 96 6 6 59 59 17 17 17 17 17 45
 45 45 45 52 52 86 86 96 96 96 96 96 96 96 96 6 6 6 59 59
 17 17 17 17 45 45 45 26 26 26 86 86 86 96 96 96 96 96 96 96
 59 59 59 59 59 59 17 17 17 17 45 45 26 26 26 86 86 86 96 96
 96 96 96 96 59 59 59 59 59 59 59 59 17 17 17 45 45 26 26 26
 86 86 86 3 77 96 96 77 77 15 59 59 57 57 59 59 59 59 33 33
 33 33 5 5 5 5 86 71 77 77 77 77 77 77 15 15 59 57 57 59
 59 59 33 33 33 33 33 5 5 5 37 71 71 77 77 77 77 77 77 30
 15 15 59 59 59 59 33 33 33 33 33 33 33 5 5 71 71 71 77 77
 77 77 77 77 30 30 15 1 1 1 1 33 33 33 33 33 33 33 33 5
 71 71 71 77 77 77 77 77 77 77 30 1 1 1 1 1 33 33 33 33
 33 33 33 33 33 71 71 71 77 77 77 77 77 77 77 30 1 1 1 1
 1 33 33 33 33 33 33 33 33 33 58 58 77 77 77 77 77 77 77 77
 30 1 1 1 1 1 33 33 33 33 33 33 33 33 9 58 58 58 77 77
 77 77 77 77 77 77 77 7 7 1 65 65 65 33 33 33 33 9 9 9
 9 58 58 77 77 77 77 77 77 77 77 7 7 7 7 7 65 65 39 39
 9 9 9 9 9 9 9 9 77 77 12 12 12 12 12 43 7 7 7 7
 7 39 39 39 39 9 9 9 9 9 9 9 9 9 12 12 12 12 12 12
 43 7 7 7 7 7 39 39 39 9 9 9 9 9 9 9 9 9 9 12
 12 12 12 12 43 43 7 7 7 7 7 47 47 39 9 9 9 9 9 9
 9 9 9 9 9 12 12 12 43 43 43 43 7 7 7 47 47 47 47 9
 9 9 9 9 9 9 9 9 9 9 43 43 43 43 43 43 43 43 7 47
 47 47 47 47 47 9 9 9 9 9 9 9 9 9 51 51 51 51 51 51
 31 31 31 47 47 47 47 47 47 47 9 9 9 9 9 9 9 9 9 51
 51 51 51 51 51 31 31 31 47 47 47 47 47 47 47 9 9 9 9 9
 9 9 9 51 51 51 51 51 31 31 31 31 31 47 47 47 47 47 47 47
 9 9 9 9 9 52 52 96 96 96 96 96 96 31 31 31 31 31 31 54
 47 47 47 47 47 9 52 52 52 52 52 96 96 96 96 96 96 96 96 96
 31 31 31 54 54 54 17 17 17 45 45 52 52 52 52 96 96 96 96 96
 96 96 96 96 96 96 6 6 6 17 17 17 17 45 45 45 45 52 52 52
 96 96 96 96 96 96 96 96 96 96 6 6 6 6 17 17 17 17 45 45
 45 45 45 52 52 96 96 96 96 96 96 96 96 96 96 6 6 6 6 17
 17 17 17 45 45 45 45 45 45 52 96 96 96 96 96 96 96 96 96 96
 6 6 6 6 59 17 17 17 48 45 45 45 26 26 26 86 86 3 3 3
 96 96 96 96 96 6 6 6 6 57 48 48 48 48 48 87 87 26 5 5
 86 86 3 3 3 96 96 96 96 96 57 57 57 57 57 57 48 48 48 48
 87 5 5 5 5 5 86 3 3 3 96 96 96 15 15 15 57 57 57 57
 57 57 48 48 48 33 5 5 5 5 5 37 3 3 77 77 77 77 15 15
 15 15 57 57 57 57 57 33 33 33 33 5 5 5 5 37 37 37 77 77
 77 77 77 77 15 15 15 15 1 1 1 33 33 33 33 33 33 5 5 5
 37 37 71 77 77 77 77 77 77 15 15 15 1 1 1 1 33 33 33 33
 33 33 33 5 5 37 37 71 77 77 77 77 77 77 77 15 1 1 1 1
 1 33 33 33 33 33 33 33 33 5 37 71 71 77 77 77 77 77 77 77
 77 1 1 1 1 1 33 33 33 33 33 33 33 33 33 9 58 77 77 77
 77 77 77 77 77 77 1 1 1 1 1 33 33 33 33 33 33 33 9 9
 9 58 77 77 77 77 77 77 77 77 77 1 1 1 1 1 39 39 39 39
 39 39 9 9 9 9 9 9 77 77 77 12 12 12 12 12 7 7 7 7
 39 39 39 39 39 39 9 9 9 9 9 9 9 9 12 12 12 12 12 12
 12 7 7 7 7 7 39 39 39 39 39 9 9 9 9 9 9 9 9 12
 12 12 12 12 12 12 7 7 7 7 7 39 39 39 39 39 9 9 9 9
 9 9 9 9 12 12 12 12 12 12 43 7 7 7 7 7 39 39 39 39
 9 9 9 9 9 9 9 9 9 12 12 12 12 12 12 31 7 7 7 7
 47 47 47 47 39 9 9 9 9 9 9 9 9 9 12 12 12 31 31 31
 31 31 31 31 47 47 47 47 47 47 9 9 9 9 9 9 9 9 9 9
 51 31 31 31 31 31 31 31 31 47 47 47 47 47 47 9 9 9 9 9
 9 9 9 96 96 51 31 31 31 31 31 31 31 31 47 47 47 47 47 47
 9 9 9 9 9 9 9 9 96 96 96 96 31 31 31 31 31 31 31 47
 47 47 47 47 47 9 9 9 9 9 52 96 96 96 96 96 96 96 31 31
 31 31 31 31 54 54 54 47 47 47 9 9 9 9 9 96 96 96 96 96
 96 96 96 96 31 31 31 31 54 54 54 54 17 45 45 45 52 52 52 52
 96 96 96 96 96 96 96 96 96 96 31 31 6 6 54 54 54 17 45 45
 45 45 52 52 52 96 96 96 96 96 96 96 96 96 96 6 6 6 6 54
 17 17 45 45 45 45 45 45 52 83 96 96 96 96 96 96 96 96 96 96
 6 6 6 6 6 17 17 17 45 45 45 45 45 83 83 96 96 3 3 96
 96 96 96 96 96 6 6 6 6 6 48 48 48 48 48 87 87 83 5 5
 86 86 3 3 3 96 96 96 96 96 6 6 6 57 57 48 48 48 48 87
 87 87 5 5 5 5 3 3 3 3 96 96 96 96 96 6 57 57 57 57
 57 48 48 48 48 87 87 5 5 5 5 5 3 3 3 96 96 96 96 15
 15 57 57 57 57 57 48 48 48 48 5 5 5 5 5 5 37 37 3 3
 77 77 77 15 15 15 15 57 57 57 57 48 48 48 48 5 5 5 5 5
 37 37 37 37 77 77 77 77 15 15 15 15 15 1 1 1 1 33 33 33
 33 5 5 5 5 37 37 37 77 77 77 77 77 77 15 15 15 1 1 1
 1 1 33 33 33 33 33 5 5 5 37 37 37 77 77 77 77 77 77 15
 15 1 1 1 1 1 1 33 33 33 33 33 33 33 37 37 37 37 77 77
 77 77 77 77 77 15 1 1 1 1 1 1 33 33 33 33 33 33 33 37
 37 37 77 77 77 77 77 77 77 77 15 1 1 1 1 1 39 39 39 39
 39 39 33 9 9 9 9 77 77 77 77 77 12 12 12 12 1 1 1 1
 39 39 39 39 39 39 39 9 9 9 9 9 9 77 77 12 12 12 12 12
 12 12 7 7 7 39 39 39 39 39 39 39 9 9 9 9 9 9 9 12
 12 12 12 12 12 12 12 7 7 7 39 39 39 39 39 39 39 9 9 9
 9 9 9 9 12 12 12 12 12 12 12 12 7 7 7 39 39 39 39 39
 39 39 9 9 9 9 9 9 9 12 12 12 12 12 12 12 7 7 7 7
 39 39 39 39 39 39 9 9 9 9 9 9 9 9 12 12 12 12 12 12
 31 31 31 28 39 39 39 39 39 39 39 9 9 9 9 9 9 9 9 25
 25 25 31 31 31 31 31 31 31 47 47 47 47 47 39 9 9 9 9 9
 9 9 9 9 25 31 31 31 31 31 31 31 31 31 47 47 47 47 47 47
 9 9 9 9 9 9 9 9 96 96 31 31 31 31 31 31 31 31 31 47