# vtk DataFile Version 2.0
Data set from ImportExport Version 6.5.141.ec284b7a5
ASCII

DATASET RECTILINEAR_GRID
DIMENSIONS 26 26 26
X_COORDINATES 26 float
-3.000000 3.000000 9.000000 15.000000 21.000000 27.000000 33.000000 39.000000 45.000000 51.000000 57.000000 63.000000 69.000000 75.000000 81.000000 87.000000 93.000000 99.000000 105.000000 111.000000 117.000000 
123.000000 129.000000 135.000000 141.000000 147.000000 
Y_COORDINATES 26 float
-3.000000 3.000000 9.000000 15.000000 21.000000 27.000000 33.000000 39.000000 45.000000 51.000000 57.000000 63.000000 69.000000 75.000000 81.000000 87.000000 93.000000 99.000000 105.000000 111.000000 117.000000 
123.000000 129.000000 135.000000 141.000000 147.000000 
Z_COORDINATES 26 float
-3.000000 3.000000 9.000000 15.000000 21.000000 27.000000 33.000000 39.000000 45.000000 51.000000 57.000000 63.000000 69.000000 75.000000 81.000000 87.000000 93.000000 99.000000 105.000000 111.000000 117.000000 
123.000000 129.000000 135.000000 141.000000 147.000000 
CELL_DATA 15625
SCALARS FeatureIds int 1
LOOKUP_TABLE default
 76 76 76 76 76 76 65 65 65 65 65 65 65 65 65 65 65 65 71 30
 30 30 30 30 30 76 76 76 76 76 76 76 65 65 65 65 65 65 65 65
 60 60 60 71 30 30 30 30 30 30 76 76 76 76 76 76 76 76 65 65
 65 65 65 65 60 60 60 60 30 30 30 30 30 30 30 76 76 76 76 76
 76 76 76 95 95 65 65 65 60 60 60 60 60 60 30 30 30 30 89 89
 26 26 76 76 76 76 76 76 95 95 96 96 60 60 60 60 60 60 60 89
 89 89 89 89 89 26 26 26 76 76 76 76 96 96 95 96 96 96 60 60
 60 60 60 89 89 89 89 89 89 89 26 26 26 76 76 76 96 96 96 96
 96 96 96 96 96 60 60 60 89 89 89 89 89 89 89 26 26 26 33 33
 96 96 96 96 96 96 96 96 96 96 96 63 63 19 19 89 89 89 89 89
 26 33 33 33 33 96 96 96 96 96 96 96 96 96 96 96 63 63 63 19
 89 89 89 89 54 54 33 33 33 33 33 96 96 96 96 96 96 96 96 96
 63 63 63 63 63 89 54 54 54 54 54 33 33 33 33 33 96 96 96 96
 96 96 96 96 96 63 63 63 63 63 63 54 54 54 54 54 33 33 33 33
 33 50 50 96 96 96 96 96 96 96 63 63 63 63 63 63 54 54 54 54
 54 33 33 33 33 33 50 50 50 50 50 50 96 96 96 63 63 63 63 63
 90 90 54 54 54 54 33 33 33 33 33 50 50 50 50 50 50 50 96 83
 83 63 63 63 83 90 90 54 54 54 54 33 33 33 53 53 53 50 50 50
 50 50 50 50 83 83 83 83 83 83 90 90 90 54 54 82 82 82 53 53
 53 53 53 50 50 50 50 50 50 83 83 83 83 83 83 83 90 90 54 54
 82 82 82 82 53 53 53 53 53 53 50 50 50 83 83 83 83 83 83 83
 83 90 90 54 54 58 82 82 82 82 53 53 53 53 53 53 53 65 65 83
 83 83 83 83 83 83 17 17 17 58 58 58 82 82 53 53 53 53 53 53
 53 65 65 65 65 83 83 83 83 83 17 17 17 17 58 58 58 58 58 53
 53 53 53 53 53 65 65 65 65 65 65 65 83 83 17 17 17 30 30 58
 58 58 58 58 58 53 53 53 53 65 65 65 65 65 65 65 65 65 83 17
 30 30 30 30 58 58 58 58 58 58 53 53 53 65 65 65 65 65 65 65
 65 65 65 65 30 30 30 30 30 58 58 58 58 58 58 58 53 65 65 65
 65 65 65 65 65 65 65 71 71 30 30 30 30 30 58 58 58 58 58 58
 58 65 65 65 65 65 65 65 65 65 65 65 71 71 30 30 30 30 30 30
 58 58 58 58 58 58 65 65 65 65 65 65 65 65 65 65 65 71 71 30
 30 30 30 30 30 76 76 76 76 76 76 76 65 65 65 65 65 65 65 65
 65 65 65 30 30 30 30 30 30 30 76 76 76 76 76 76 76 65 65 65
 65 65 65 65 4 4 4 4 30 30 30 30 30 30 30 76 76 76 76 76
 76 76 76 65 65 65 65 65 4 60 60 60 4 4 30 30 30 30 30 30
 76 76 76 76 76 76 76 76 95 95 95 65 4 4 60 60 60 4 4 4
 30 30 30 30 29 26 26 76 76 76 76 76 76 95 95 95 95 4 4 60
 60 60 4 4 4 89 89 89 89 29 26 26 26 76 76 76 76 96 95 95
 95 96 96 4 4 4 4 4 4 89 89 89 89 89 89 26 26 26 76 76
 76 96 96 96 96 96 96 96 96 4 4 4 4 4 89 89 89 89 89 89
 26 26 26 33 33 96 96 96 96 96 96 96 96 96 96 4 63 63 63 19
 89 89 89 89 29 33 33 33 33 33 33 96 96 96 96 96 96 96 96 96
 63 63 63 63 63 89 89 89 89 54 33 33 33 33 33 33 96 96 96 96
 96 96 96 96 96 63 63 63 63 63 63 11 54 54 54 33 33 33 33 33
 33 96 96 96 96 96 96 96 96 96 63 63 63 63 63 11 11 54 54 54
 33 33 33 33 33 33 33 96 96 96 96 96 96 96 96 63 63 63 63 63
 11 11 54 54 54 33 33 33 33 33 33 33 50 50 50 96 96 96 96 96
 63 63 63 63 63 90 90 90 54 54 33 33 33 33 33 33 50 50 50 50
 50 50 96 96 63 63 63 63 63 63 90 90 90 54 54 33 33 33 33 33
 53 53 53 53 50 50 50 50 50 83 63 63 63 63 63 90 90 90 90 54
 33 33 33 53 53 53 53 53 53 53 53 50 50 50 83 83 83 83 83 83
 83 90 90 90 54 82 82 82 82 82 53 53 53 53 53 53 53 53 83 83
 83 83 83 83 83 83 90 90 90 58 58 82 82 82 82 53 53 53 53 53
 53 53 53 65 83 83 83 83 83 83 83 17 17 17 58 58 58 82 82 53
 53 53 53 53 53 53 53 65 65 65 83 83 83 83 83 17 17 17 17 58
 58 58 58 58 53 53 53 53 53 53 53 65 65 65 65 65 65 83 83 17
 17 17 17 17 58 58 58 58 58 58 53 53 53 53 53 65 65 65 65 65
 65 65 65 83 17 30 30 30 30 58 58 58 58 58 58 53 53 53 53 65
 65 65 65 65 65 65 65 65 65 30 30 30 30 30 58 58 58 58 58 58
 53 53 53 65 65 65 65 65 65 65 65 65 71 71 30 30 30 30 30 58
 58 58 58 58 58 53 53 65 65 65 65 65 65 65 65 65 65 71 71 30
 30 30 30 30 30 58 58 58 58 58 53 65 65 65 65 65 65 65 65 65
 65 65 71 71 30 30 30 30 30 30 76 76 76 76 76 76 76 76 65 65
 65 65 65 65 4 4 4 4 30 30 30 30 30 30 30 76 76 76 76 76
 76 76 76 65 65 65 65 4 4 4 4 4 4 30 30 30 30 30 30 30
 76 76 76 76 76 76 76 76 65 65 70 65 4 4 4 4 4 4 4 30
 30 30 30 30 30 76 76 76 76 76 76 76 76 95 95 70 65 4 4 4
 4 4 4 4 4 30 30 29 29 29 26 26 76 76 76 76 76 76 95 95
 95 4 4 4 4 4 4 4 4 4 29 29 29 29 29 26 26 26 76 76
 76 76 96 96 95 96 96 96 4 4 4 4 4 4 4 89 29 29 29 29
 26 26 26 76 76 76 96 96 96 96 96 96 96 96 4 4 4 4 4 4
 89 29 29 29 29 26 26 33 33 33 96 96 96 96 96 96 96 96 96 96
 4 4 63 63 11 89 29 29 29 29 33 33 33 33 33 33 96 96 96 96
 96 96 96 96 96 96 63 63 63 11 11 11 11 11 29 33 33 33 33 33
 33 96 96 96 96 96 96 96 96 96 63 63 63 63 11 11 11 11 11 11
 33 33 33 33 33 33 33 96 96 96 96 96 96 96 96 63 63 63 63 63
 11 11 11 11 11 33 33 33 33 33 33 33 96 96 96 96 96 96 96 96
 63 63 63 63 63 11 11 11 11 11 33 33 33 33 33 33 33 96 96 96
 96 96 96 96 96 63 63 63 63 63 11 11 11 11 11 33 33 33 33 33
 33 53 53 53 53 96 96 96 96 63 63 63 63 63 11 90 90 11 11 11
 33 33 33 33 33 53 53 53 53 53 53 53 50 50 63 63 63 63 63 11
 11 90 11 11 11 33 33 33 53 53 53 53 53 53 53 53 53 53 53 83
 83 83 83 83 11 11 90 11 11 11 58 82 82 82 53 53 53 53 53 53
 53 53 53 53 83 83 83 83 83 79 79 90 11 11 58 58 82 82 82 53
 53 53 53 53 53 53 53 53 53 83 83 83 83 79 79 79 59 59 59 58
 58 58 82 82 53 53 53 53 53 53 53 53 53 65 65 83 83 83 59 59
 59 59 59 59 58 58 58 58 58 53 53 53 53 53 53 53 53 65 65 65
 65 65 59 59 59 59 17 59 59 58 58 58 58 58 53 53 53 53 53 53
 53 65 65 65 65 65 65 59 59 59 59 30 30 30 58 58 58 58 58 58
 53 53 53 53 53 65 65 65 65 65 65 65 65 30 30 30 30 30 30 58
 58 58 58 58 58 53 53 53 53 65 65 65 65 65 65 65 65 30 30 30
 30 30 30 30 58 58 58 58 58 58 53 53 53 53 65 65 65 65 65 65
 65 65 30 30 30 30 30 30 30 30 58 58 58 58 58 53 53 53 65 65
 65 65 65 65 65 65 65 30 30 30 30 30 30 30 30 7 7 76 7 76
 7 46 46 46 65 65 65 4 4 4 4 4 4 30 30 30 30 30 30 30
 76 76 76 76 76 76 76 76 46 70 70 70 4 4 4 4 4 4 4 30
 30 30 30 30 30 76 76 76 76 76 76 76 76 76 70 70 70 4 4 4
 4 4 4 4 30 30 30 30 29 29 76 76 76 76 76 76 76 76 70 70
 70 70 70 4 4 4 4 4 4 4 30 29 29 29 29 26 76 76 76 76
 76 76 76 70 70 70 70 4 4 4 4 4 4 4 4 29 29 29 29 29
 29 26 76 76 76 76 76 96 96 95 96 96 4 4 4 4 4 4 4 4
 29 29 29 29 29 26 26 26 76 33 33 96 96 96 96 96 96 96 4 4
 4 4 4 4 4 29 29 29 29 29 26 33 33 33 33 33 96 96 96 96
 96 96 96 96 96 4 4 4 11 11 11 11 29 29 29 33 33 33 33 33
 33 96 96 96 96 96 96 96 96 96 96 63 63 11 11 11 11 11 11 11
 33 33 33 33 33 33 96 96 96 96 96 96 96 96 96 63 63 63 11 11
 11 11 11 11 11 33 33 33 33 33 33 33 96 96 96 96 96 96 96 96
 63 63 63 63 11 11 11 11 11 11 33 33 33 33 33 33 33 96 96 96
 96 96 96 96 96 63 63 63 63 11 11 11 11 11 11 33 33 33 33 33
 33 33 53 96 96 96 96 96 96 96 63 63 63 63 11 11 11 11 11 11
 33 33 33 33 33 33 53 53 53 53 96 96 96 96 96 63 63 63 63 11
 11 11 11 11 11 33 33 33 33 33 53 53 53 53 53 53 53 53 96 96
 63 63 63 11 11 11 11 11 11 11 33 33 33 53 53 53 53 53 53 53
 53 53 53 53 80 80 83 83 11 11 11 11 11 11 11 33 33 33 53 53
 53 53 53 53 53 53 53 53 80 80 80 80 79 79 79 79 11 11 11 11
 58 84 82 53 53 53 53 53 53 53 53 53 53 53 80 80 80 79 79 79
 79 59 59 59 58 58 58 82 53 53 53 53 53 53 53 53 53 53 80 80
 80 80 79 79 79 59 59 59 59 58 58 58 58 53 53 53 53 53 53 53
 53 53 53 65 80 80 80 59 59 59 59 59 59 59 58 58 58 58 58 53
 53 53 53 53 53 53 53 65 65 65 65 59 59 59 59 59 59 59 59 58
 58 58 58 58 58 53 53 53 53 53 53 65 65 65 65 65 59 59 59 59
 59 59 59 59 58 58 58 58 58 58 53 53 53 53 53 65 65 65 65 65
 65 65 59 59 59 59 59 30 30 58 58 58 58 58 58 53 53 53 53 46
 65 65 65 65 65 65 65 59 30 30 30 30 30 30 30 58 58 58 58 58
 53 46 46 46 46 65 65 65 65 65 65 65 30 30 30 30 30 30 30 30
 7 7 7 7 7 7 46 46 46 46 46 46 46 4 4 4 4 4 30 30
 30 30 30 30 30 7 7 7 7 7 7 46 46 46 46 70 70 70 4 4
 4 4 4 4 30 30 30 30 30 30 7 7 7 7 7 7 7 46 46 70
 70 70 70 4 4 4 4 4 4 4 30 30 29 29 29 76 76 7 7 76
 76 76 46 70 70 70 70 70 4 4 4 4 4 4 4 29 29 29 29 29
 26 76 76 76 76 76 76 70 70 70 70 70 70 4 4 4 4 4 4 4
 29 29 29 29 29 29 26 76 76 76 76 96 96 70 70 70 70 70 4 4
 4 4 4 4 4 29 29 29 29 29 26 62 62 62 62 62 96 96 96 96
 96 96 96 4 4 4 4 4 4 4 29 29 29 29 29 26 33 33 33 33
 33 96 96 96 96 96 96 96 96 4 4 4 4 11 11 11 11 29 29 29
 33 33 33 33 33 33 96 96 96 96 96 96 96 69 69 69 63 11 11 11
 11 11 11 11 11 33 33 33 33 33 33 33 96 96 96 96 96 96 69 69
 69 63 36 11 11 11 11 11 11 11 33 33 33 33 33 33 33 96 96 96
 96 96 96 96 69 69 36 36 11 11 11 11 11 11 11 33 33 33 33 33
 33 33 96 96 96 96 96 96 96 69 36 36 36 36 11 11 11 11 11 11
 33 33 33 33 33 33 33 53 96 96 96 96 96 96 96 63 36 36 11 11
 11 11 11 11 11 33 33 33 33 33 33 53 53 53 53 96 96 96 96 96
 63 63 36 11 11 11 11 11 11 11 33 33 33 33 33 53 53 53 53 53
 53 53 53 80 80 80 63 11 11 11 11 11 11 11 11 33 33 33 53 53
 53 53 53 53 53 53 53 53 80 80 80 80 80 11 11 11 11 11 11 11
 84 84 53 53 53 53 53 53 53 53 53 53 53 80 80 80 80 80 79 79
 11 11 11 11 11 84 84 84 53 53 53 53 53 53 53 53 53 53 80 80
 80 80 80 79 79 79 59 59 59 59 84 84 53 53 53 53 53 53 53 53
 53 53 53 80 80 80 80 12 12 12 59 59 59 59 59 58 58 58 53 25
 25 53 53 53 53 53 53 53 80 80 80 80 12 12 59 59 59 59 59 59
 58 58 58 58 25 25 53 53 53 53 53 53 53 80 80 80 59 59 59 59
 59 59 59 59 59 58 58 58 58 58 53 53 53 53 53 53 46 46 65 65
 59 59 59 59 59 59 59 59 59 59 58 58 58 58 58 53 53 53 46 46
 46 46 46 46 65 65 59 59 59 59 59 59 59 59 59 58 58 58 58 58
 53 53 53 46 46 46 46 46 46 65 65 59 59 59 59 59 59 59 59 59
 58 58 7 7 7 7 46 46 46 46 46 46 46 46 65 65 65 59 59 59
 59 59 59 59 59 7 7 7 7 7 7 46 46 46 46 46 46 46 46 4
 4 4 4 30 30 59 59 59 59 59 7 7 7 7 7 7 46 46 46 46
 46 70 70 4 4 4 4 4 4 30 59 59 59 59 59 7 7 7 7 7
 7 7 46 46 70 70 70 70 4 4 4 4 4 4 4 59 59 29 29 29
 7 7 7 7 7 7 7 46 46 70 70 70 70 4 4 4 4 4 4 4
 4 29 29 29 29 26 76 76 7 76 76 39 39 39 39 70 70 70 4 4
 4 4 4 4 4 29 29 29 29 29 62 62 62 62 62 62 39 39 39 39
 70 70 70 4 4 4 4 4 4 45 29 29 29 29 29 62 62 62 62 62
 62 39 39 39 39 39 39 39 4 4 4 4 4 4 11 11 29 29 29 29
 62 62 62 62 62 62 62 39 39 39 39 39 39 4 4 4 4 11 11 11
 11 11 11 11 29 62 62 33 33 33 33 39 39 39 39 96 96 69 69 69
 69 11 11 11 11 11 11 11 11 11 62 33 33 33 33 33 33 39 39 39
 96 96 69 69 69 69 36 36 11 11 11 11 11 11 11 11 33 33 33 33
 33 33 39 39 96 96 96 96 69 69 36 36 36 36 11 11 11 11 11 11
 11 33 33 33 33 33 33 39 39 96 96 96 96 96 69 36 36 36 36 11
 11 11 11 11 11 11 33 33 33 33 33 33 53 39 96 96 96 96 96 69
 36 36 36 36 11 11 11 11 11 11 33 33 33 33 33 33 53 53 53 53
 53 96 96 96 36 36 36 36 11 11 11 11 11 11 11 33 33 33 33 33
 53 53 53 53 53 53 53 53 80 80 80 80 36 11 11 11 11 11 11 11
 84 84 33 53 53 53 53 53 53 53 53 53 80 80 80 80 80 80 11 11
 11 11 11 11 11 84 84 84 53 53 53 53 53 53 53 53 53 80 80 80
 80 80 80 12 12 12 11 11 11 11 84 84 84 53 53 53 53 53 53 53
 53 53 80 80 80 80 80 80 12 12 12 12 59 59 59 84 84 84 53 25
 25 53 53 53 53 53 53 53 80 80 80 80 12 12 12 12 59 59 59 59
 84 84 25 25 25 25 25 53 53 53 53 53 80 80 80 80 80 12 12 12
 59 59 59 59 59 58 58 58 25 25 25 25 53 53 53 53 53 8 80 80
 80 12 12 12 59 59 59 59 59 59 59 58 58 58 25 25 53 53 53 46
 46 46 46 46 80 80 12 12 59 59 59 59 59 59 59 59 58 58 58 25
 25 46 46 46 46 46 46 46 46 46 80 12 12 59 59 59 59 59 59 59
 59 7 7 7 7 46 46 46 46 46 46 46 46 46 46 46 59 59 59 59
 59 59 59 59 59 7 7 7 7 7 7 46 46 46 46 46 46 46 46 46
 46 59 59 59 59 59 59 59 59 59 7 7 7 7 7 7 46 46 46 46
 46 46 46 46 46 4 4 4 30 30 59 59 59 59 59 7 7 7 7 7
 7 46 46 46 46 46 46 46 46 4 4 4 4 4 30 59 59 59 59 59
 7 7 7 7 7 7 46 46 46 46 70 70 70 4 4 4 4 4 4 4
 45 59 59 59 59 7 7 7 7 7 7 7 39 39 39 70 70 70 70 4
 4 4 4 4 45 45 45 29 29 29 62 62 62 62 62 62 39 39 39 39
 70 70 70 4 4 4 4 4 4 45 45 45 29 29 29 62 62 62 62 62
 62 62 39 39 39 39 39 70 4 4 4 4 4 45 45 45 45 29 29 29
 62 62 62 62 62 62 62 39 39 39 39 39 39 39 4 4 4 45 45 45
 11 11 29 29 29 62 62 62 62 62 62 62 39 39 39 39 39 39 39 4
 4 45 45 11 11 11 11 11 11 11 62 62 62 62 62 62 39 39 39 39
 39 39 39 39 4 4 11 11 11 11 38 38 11 11 11 62 62 62 62 62
 62 39 39 39 39 39 39 69 69 69 69 36 36 11 11 11 38 11 11 11
 11 33 33 33 33 33 39 39 39 39 39 39 69 69 69 69 36 36 11 11
 11 11 11 11 11 11 33 33 33 33 33 39 39 39 39 39 39 96 69 69
 36 36 36 36 11 11 11 11 11 11 11 33 33 33 33 33 33 39 39 39
 39 39 96 69 69 36 36 36 11 11 11 11 11 11 11 11 33 33 33 33
 33 53 53 53 53 53 53 41 41 41 41 41 36 11 11 11 11 11 11 11
 11 33 33 33 33 53 53 53 53 53 53 53 41 41 41 41 41 41 11 11
 11 11 11 11 11 84 84 78 33 53 53 53 53 53 53 53 53 80 80 41
 41 41 80 11 11 11 11 11 11 11 84 84 78 53 53 53 53 53 53 53
 53 53 80 80 80 80 80 80 12 12 12 12 11 68 68 84 84 78 78 53
 53 53 53 53 53 8 8 80 80 80 80 80 80 12 12 12 12 59 59 59
 84 84 78 78 25 25 53 53 53 53 8 8 8 80 80 80 80 12 12 12
 12 12 59 59 59 84 84 6 25 25 25 25 53 53 53 53 8 8 8 80
 80 80 12 12 12 12 59 59 59 59 59 6 6 25 25 25 25 53 53 46
 46 8 8 8 80 80 12 12 12 12 59 59 59 59 59 59 59 6 6 25
 25 46 46 46 46 46 46 46 46 80 80 12 12 12 59 59 59 59 59 59
 59 59 7 7 7 46 46 46 46 46 46 46 46 46 46 80 12 12 59 59
 59 59 59 59 59 59 7 7 7 7 7 46 46 46 46 46 46 46 46 46
 46 59 59 59 59 59 59 59 59 59 7 7 7 7 7 7 46 46 46 46
 46 46 46 46 46 46 59 59 59 59 59 59 59 59 59 7 7 7 7 7
 7 46 46 46 46 46 46 46 46 46 4 4 4 61 61 59 59 59 59 59
 7 7 7 7 7 7 46 46 46 46 46 46 46 46 46 4 4 4 45 45
 45 59 59 59 59 7 7 7 7 7 7 7 46 46 46 46 46 46 46 4
 4 4 45 45 45 45 45 45 45 45 7 7 7 7 7 7 7 39 39 39
 39 70 70 70 4 4 45 45 45 45 45 45 45 45 45 62 62 62 62 62
 62 62 39 39 39 39 39 39 4 4 4 45 45 45 45 45 45 45 45 62
 62 62 62 62 62 62 62 39 39 39 39 39 39 39 4 4 45 45 45 45
 45 45 45 45 62 62 62 62 62 62 62 62 39 39 39 39 39 39 39 4
 4 45 45 45 45 45 45 45 45 62 62 62 62 62 62 62 62 39 39 39
 39 39 39 39 39 45 45 45 45 45 45 38 38 38 62 23 62 62 62 62
 62 62 39 39 39 39 39 39 39 47 47 45 45 45 11 38 38 38 11 23
 23 23 62 62 62 62 39 39 39 39 39 39 39 69 69 47 36 11 11 11
 38 38 38 11 23 23 23 62 62 62 62 39 39 39 39 39 39 39 69 69
 47 36 16 16 11 11 38 11 11 11 23 23 33 33 62 62 39 39 39 39
 39 39 39 69 47 47 47 16 16 11 11 11 11 11 11 11 33 33 33 33
 33 39 39 39 39 39 39 39 47 47 47 36 16 16 11 11 11 11 11 11
 11 33 33 33 33 35 35 35 35 35 39 39 41 41 41 41 41 27 11 11
 11 11 11 11 11 78 78 78 33 33 35 35 35 35 35 35 35 41 41 41
 41 41 41 11 11 11 11 11 11 11 78 78 78 78 78 35 35 35 35 35
 53 53 80 80 41 41 41 80 80 68 68 68 68 68 68 78 78 78 78 78
 53 35 35 35 35 8 8 8 80 80 80 80 80 12 12 68 68 68 68 68
 78 78 78 78 78 78 53 53 53 53 8 8 8 80 80 80 80 80 12 12
 12 12 68 68 68 78 78 78 78 78 78 53 53 53 53 8 8 8 8 80
 80 80 12 12 12 12 12 68 68 68 6 6 6 6 6 25 53 53 53 53
 8 8 8 8 8 80 80 12 12 12 12 12 59 59 59 6 6 6 6 6
 25 25 46 46 46 46 8 8 8 8 80 12 12 12 12 12 59 59 59 59
 59 6 6 6 6 25 46 46 46 46 46 46 8 8 8 8 12 12 12 12
 59 59 59 59 59 59 6 6 6 7 46 46 46 46 46 46 46 46 46 8
 8 12 12 12 59 59 59 59 59 59 59 7 7 7 7 46 46 46 46 46
 46 46 46 46 46 46 12 12 59 59 59 59 59 59 59 7 7 7 7 7
 7 46 46 46 46 46 46 46 46 46 46 12 12 59 59 59 59 59 59 59
 7 7 7 7 7 7 46 46 46 46 46 46 46 46 46 46 45 45 61 61
 61 59 59 59 59 7 7 7 7 7 7 46 46 46 46 46 46 46 46 46
 4 45 45 45 45 45 45 45 45 45 7 7 7 7 7 7 46 46 46 46
 46 46 46 46 46 45 45 45 45 45 45 45 45 45 45 7 7 7 7 7
 7 46 39 39 39 39 39 39 39 4 45 45 45 45 45 45 45 45 45 45
 62 62 62 62 62 62 62 39 39 39 39 39 39 39 39 45 45 45 45 45
 45 45 45 45 62 62 62 62 62 62 62 62 39 39 39 39 39 39 39 39
 45 45 45 45 45 45 45 45 45 62 62 62 62 62 62 62 62 39 39 39
 39 39 39 39 39 45 45 45 45 45 45 45 45 45 62 62 62 62 62 62
 62 62 39 39 39 39 39 39 39 39 45 45 45 45 45 45 45 45 45 62
 23 23 62 62 62 62 62 39 39 39 39 39 39 39 47 47 45 45 45 45
 38 38 38 11 23 23 23 23 62 62 62 39 39 39 39 39 39 39 39 47
 47 47 45 45 45 38 38 38 11 23 23 23 23 62 62 62 39 39 39 39
 39 39 39 47 47 47 47 16 16 16 11 38 38 11 23 23 23 23 62 62
 62 39 39 39 39 39 39 39 47 47 47 47 16 16 16 11 11 11 11 11
 23 23 33 33 62 62 39 39 39 39 39 39 39 47 47 47 47 27 16 16
 11 11 11 11 11 23 33 33 33 35 35 35 35 35 39 39 39 39 47 47
 27 27 27 27 11 11 11 11 11 11 78 78 78 78 35 35 35 35 35 35
 35 35 41 41 41 41 27 27 27 11 11 11 11 11 11 78 78 78 78 78
 35 35 35 35 35 35 8 80 80 41 41 41 80 27 68 68 68 68 68 68
 78 78 78 78 78 78 35 35 35 35 8 8 8 80 80 80 80 80 12 68
 68 68 68 68 68 78 78 78 78 78 78 35 35 35 35 8 8 8 8 80
 80 80 80 12 12 68 68 68 68 68 78 78 78 78 78 78 78 35 53 53
 8 8 8 8 8 80 80 12 12 12 12 68 68 68 68 6 6 6 6 6
 6 6 53 53 8 8 8 8 8 8 8 80 12 12 12 12 12 68 68 59
 6 6 6 6 6 6 46 46 46 46 8 8 8 8 8 8 12 12 12 12
 12 12 59 59 59 6 6 6 6 6 6 46 46 46 46 46 46 8 8 8
 8 12 12 12 12 12 59 59 59 59 6 6 6 6 6 46 46 46 46 46
 46 46 46 8 8 8 12 12 12 12 59 59 59 59 59 7 7 7 7 7
 46 46 46 46 46 46 46 46 46 8 8 12 12 12 59 59 59 59 59 59
 7 7 7 7 7 7 46 46 46 46 46 46 46 46 46 46 46 12 12 59
 59 59 59 59 59 7 7 7 7 7 7 46 46 46 46 46 46 46 46 46
 46 45 61 61 61 61 61 45 45 45 7 7 7 7 7 7 46 46 46 46
 46 46 46 46 46 45 45 45 61 61 61 61 45 45 45 7 7 7 7 7
 7 46 46 46 46 46 46 46 46 42 45 45 45 45 61 45 45 45 45 45
 62 62 62 7 62 62 62 39 39 39 39 39 39 39 39 45 45 45 45 45
 45 45 45 45 45 62 62 62 62 62 62 62 39 39 39 39 39 39 39 39
 45 45 45 45 45 45 45 45 45 45 62 62 62 62 62 62 62 39 39 39
 39 39 39 39 39 45 45 45 45 45 45 45 45 45 62 62 62 62 62 62
 62 62 39 39 39 39 39 39 39 39 45 45 45 45 45 45 45 45 45 62
 62 62 62 62 62 62 62 39 39 39 39 39 39 39 39 45 45 45 45 45
 45 45 45 45 62 23 23 62 62 62 62 62 39 39 39 39 39 39 39 47
 45 45 45 45 45 45 45 45 23 23 23 23 23 62 62 62 39 39 39 39
 39 39 39 47 47 47 45 45 45 45 38 38 38 23 23 23 23 23 62 62
 62 39 39 39 39 39 39 39 47 47 47 47 16 16 16 11 11 11 11 23
 23 23 23 62 62 62 39 39 39 39 39 39 39 47 47 47 47 16 16 16
 11 11 11 11 23 23 23 23 62 62 62 39 39 39 39 39 39 39 47 47
 47 47 27 27 27 11 11 11 11 11 23 23 78 78 35 35 35 35 35 35
 39 39 39 47 47 27 27 27 27 27 11 11 11 11 11 34 78 78 78 78
 35 35 35 35 35 35 35 8 8 41 27 27 27 27 27 68 68 68 68 68
 34 78 78 78 78 35 35 35 35 35 35 8 8 8 80 80 80 80 27 68
 68 68 68 68 68 34 78 78 78 78 78 35 35 35 35 8 8 8 8 80
 80 80 80 68 68 68 68 68 68 68 34 78 78 78 78 78 35 35 35 35
 8 8 8 8 8 80 80 80 12 68 68 68 68 68 68 34 78 78 6 6
 78 78 35 35 35 8 8 8 8 8 8 80 12 12 12 68 68 68 68 68
 6 6 6 6 6 6 6 35 46 8 8 8 8 8 8 8 8 12 12 12
 12 68 68 68 68 6 6 6 6 6 6 6 46 46 46 8 8 8 8 8
 8 8 12 12 12 12 12 59 59 59 6 6 6 6 6 6 6 46 46 46
 46 8 8 8 8 8 8 12 12 12 12 59 59 59 59 93 93 93 93 93
 46 46 46 46 46 46 46 46 8 8 8 8 12 12 12 14 59 59 59 59
 93 93 93 93 93 46 46 46 46 46 46 46 46 46 8 8 8 12 12 12
 14 59 59 59 59 93 93 93 93 93 46 46 46 46 46 46 46 46 46 46
 8 8 12 12 14 14 59 59 59 59 7 7 93 93 93 7 46 46 46 46
 46 46 46 42 42 42 42 61 61 61 61 61 14 14 14 7 7 7 7 7
 7 46 46 46 46 46 46 42 42 42 42 45 45 61 61 61 61 61 61 61
 7 7 7 7 7 7 46 46 46 46 46 46 46 42 42 45 45 45 61 61
 61 45 45 45 45 62 62 62 62 62 62 39 39 39 39 39 39 39 42 42
 45 45 45 45 45 45 45 45 45 45 62 62 62 62 62 62 39 39 39 39
 39 39 39 39 45 45 45 45 45 45 45 45 45 45 45 62 62 62 62 62
 62 62 39 39 39 39 39 39 39 39 45 45 45 45 45 45 45 45 45 62
 62 62 62 62 62 62 62 39 39 39 39 39 39 39 55 55 45 45 45 45
 45 45 45 45 62 62 62 62 62 62 62 62 39 39 39 39 39 39 39 39
 45 45 45 45 45 45 45 45 45 62 23 23 62 62 62 62 62 39 39 39
 39 39 39 39 39 45 45 45 45 45 45 45 45 45 23 23 23 23 62 62
 62 39 39 39 39 39 39 39 39 47 47 45 45 45 45 45 45 45 23 23
 23 23 23 62 62 62 39 39 39 39 39 39 39 47 47 47 47 16 16 45
 11 11 11 23 23 23 23 23 62 62 62 39 39 39 39 39 39 39 47 47
 47 47 27 27 27 11 11 11 11 23 23 23 23 62 62 62 39 39 39 39
 39 39 39 47 47 47 47 27 27 27 11 11 11 11 11 23 34 78 78 35
 35 35 35 35 35 39 39 72 72 47 27 27 27 27 27 27 68 68 68 34
 34 34 78 78 78 35 35 35 35 35 35 72 72 72 72 72 27 27 27 27
 68 68 68 68 34 34 34 78 78 78 35 35 35 35 35 35 72 72 72 72
 72 72 72 72 68 68 68 68 68 34 34 34 78 78 78 78 35 35 35 35
 35 8 72 72 72 72 72 72 72 68 68 68 68 68 34 34 34 78 78 78
 78 35 35 35 35 8 8 8 8 8 72 72 72 68 68 68 68 68 68 34
 34 34 34 78 78 78 78 35 35 35 8 8 8 8 8 8 8 72 12 68
 68 68 68 68 34 34 34 6 6 6 6 6 35 46 8 8 8 8 8 8
 8 8 12 12 12 68 68 68 68 34 6 6 6 6 6 6 6 46 46 46
 8 8 8 8 8 8 8 12 12 12 14 14 14 14 14 6 6 6 6 6
 6 6 46 46 46 46 8 8 8 8 8 8 12 12 14 14 14 14 14 14
 93 93 93 93 93 93 46 46 46 46 46 28 8 8 8 8 8 12 14 14
 14 14 14 14 14 93 93 93 93 93 93 46 46 46 46 46 28 28 46 8
 8 8 14 14 14 14 14 14 14 14 93 93 93 93 93 93 46 46 46 46
 46 46 46 46 46 8 8 14 14 14 14 14 14 14 14 93 93 93 93 93
 93 46 46 46 46 46 46 42 42 42 42 42 61 61 61 61 14 14 14 14
 7 7 7 93 7 7 46 46 46 46 46 46 42 42 42 42 45 45 61 61
 61 61 14 14 14 62 62 7 7 7 85 85 46 39 39 39 39 42 42 42
 42 45 45 61 61 61 45 45 45 45 62 62 62 62 62 62 39 39 39 39
 39 39 39 42 55 45 45 45 45 45 45 45 45 45 45 62 62 62 62 62
 62 39 39 39 39 39 39 39 39 55 55 45 45 45 45 45 45 45 45 45
 62 62 62 62 62 62 62 39 39 39 39 39 39 39 55 55 55 45 45 45
 45 45 45 45 62 62 62 62 62 62 62 62 39 39 39 39 39 39 39 55
 55 55 45 45 45 45 45 45 45 62 62 62 62 62 62 62 62 39 39 39
 39 39 39 39 55 55 55 45 45 45 45 45 45 45 62 62 62 62 62 62
 62 62 39 39 39 39 39 39 39 55 55 55 45 45 45 45 45 45 45 62
 23 23 62 62 62 62 39 39 39 39 39 39 39 39 55 55 55 45 45 45
 45 45 45 23 23 23 23 23 62 62 62 39 39 39 39 39 39 39 39 47
 47 47 45 45 45 45 45 45 23 23 23 23 23 62 62 62 39 39 39 39
 39 39 39 47 47 47 47 27 27 27 66 66 66 23 23 23 23 23 62 44
 44 44 44 39 39 39 39 72 47 47 47 47 27 27 27 11 66 11 11 11
 34 34 34 78 44 44 44 44 44 44 39 72 72 72 72 72 27 27 27 27
 27 37 68 68 34 34 34 34 78 35 35 35 35 35 35 35 72 72 72 72
 72 72 72 72 27 68 68 68 68 34 34 34 34 78 78 35 35 35 35 35
 35 72 72 72 72 72 72 72 72 68 68 68 68 68 34 34 34 34 78 78
 78 35 35 35 35 72 72 72 72 72 72 72 72 72 68 68 68 68 68 34
 34 34 34 78 78 78 35 35 35 35 72 72 72 72 72 72 72 72 72 68
 68 68 68 68 34 34 34 34 34 78 78 78 35 35 35 8 8 8 8 72
 72 72 72 72 68 68 68 68 68 34 34 34 34 6 6 6 6 35 46 8
 8 8 8 8 8 72 72 72 72 14 14 14 14 14 34 34 34 6 6 6
 6 6 46 46 46 8 8 8 8 8 8 72 72 14 14 14 14 14 14 14
 93 93 93 93 93 93 46 46 46 46 46 8 8 8 8 8 8 72 14 14
 14 14 14 14 14 93 93 93 93 93 93 46 46 46 46 28 28 28 8 8
 8 88 14 14 14 14 14 14 14 14 93 93 93 93 93 93 46 46 46 46
 28 28 28 28 8 88 88 14 14 14 14 14 14 14 14 93 93 93 93 93
 93 46 46 46 46 28 28 28 28 28 88 88 14 14 14 14 14 14 14 14
 93 93 93 93 93 93 85 46 46 46 74 74 74 42 42 42 45 45 61 61
 14 14 14 14 14 93 93 93 93 93 85 85 85 85 74 74 74 42 42 42
 42 45 45 61 61 61 45 45 14 14 62 62 62 7 85 85 85 85 85 74
 74 74 42 42 42 42 45 45 45 61 61 45 45 45 45 62 62 62 62 62
 62 85 39 39 39 39 74 74 74 55 55 45 45 45 45 45 45 45 45 45
 62 62 62 62 62 62 39 39 39 39 39 39 39 55 55 55 55 45 45 45
 45 45 45 45 45 62 62 62 62 62 62 62 39 39 39 39 39 39 55 55
 55 55 55 45 45 45 45 45 45 45 94 94 94 62 62 62 39 39 39 39
 39 39 39 55 55 55 55 55 45 45 45 45 45 45 94 94 94 94 62 62
 62 39 39 39 39 39 39 39 55 55 55 55 55 45 45 45 45 45 45 94
 94 94 94 62 62 62 39 39 39 39 39 39 39 39 55 55 55 55 45 45
 45 45 45 45 94 94 62 62 62 62 62 39 39 39 39 39 39 39 39 55
 55 55 55 45 45 45 45 45 45 23 23 62 62 62 62 62 44 39 39 39
 39 39 39 56 47 55 55 55 45 45 45 66 66 66 23 23 23 62 62 44
 44 44 44 44 39 39 39 39 56 47 47 47 27 45 66 66 66 66 66 23
 23 23 62 44 44 44 44 44 44 44 44 72 72 72 72 47 72 72 72 66
 66 66 66 66 11 34 34 44 44 44 44 44 44 44 44 44 72 72 72 72
 72 72 72 72 72 37 37 37 37 34 34 34 34 44 44 44 44 44 44 44
 44 72 72 72 72 72 72 72 72 72 37 37 37 68 34 34 34 34 34 44
 44 44 44 44 44 72 72 72 72 72 72 72 72 72 72 68 68 68 68 34
 34 34 34 34 78 44 44 44 44 44 72 72 72 72 72 72 72 72 72 72
 68 68 68 68 34 34 34 34 34 78 78 35 35 35 72 72 72 72 72 72
 72 72 72 72 72 68 68 68 68 34 34 34 34 34 78 78 78 35 35 3
 72 72 72 72 72 72 72 72 72 72 14 14 14 14 34 34 34 34 34 6
 6 6 18 18 8 8 72 72 72 72 72 72 72 72 14 14 14 14 14 34
 34 34 6 6 6 6 18 18 46 46 8 8 8 72 72 72 72 72 14 14
 14 14 14 14 14 93 93 93 93 93 93 93 46 46 46 46 8 8 8 88
 88 88 88 14 14 14 14 14 14 14 93 93 93 93 93 93 93 46 46 46
 28 28 28 88 88 88 88 88 14 14 14 14 14 14 14 93 93 93 93 93
 93 46 46 46 46 28 28 28 28 88 88 88 88 14 14 14 14 14 14 14
 93 93 93 93 93 93 46 46 46 46 28 28 28 28 88 88 88 88 14 14
 14 14 14 14 14 64 64 93 93 93 85 85 85 85 74 74 74 74 74 74
 74 45 45 14 14 14 14 14 14 14 64 64 64 64 93 85 85 85 85 74
 74 74 74 74 74 74 45 45 45 45 45 14 14 14 14 64 64 64 64 85
 85 85 85 85 74 74 74 74 74 74 74 45 45 45 45 45 45 45 45 45
 62 64 64 64 64 85 85 85 85 74 74 74 74 74 55 55 55 45 45 45
 45 45 45 45 45 94 94 62 62 62 62 85 39 39 39 39 74 74 74 55
 55 55 55 45 45 45 45 45 45 45 94 94 94 62 62 62 39 39 39 39
 39 39 39 55 55 55 55 55 45 45 45 45 45 45 45 94 94 94 62 62
 62 39 39 39 39 39 39 39 55 55 55 55 55 55 45 45 45 45 45 94
 94 94 94 94 62 62 39 39 39 39 39 39 39 55 55 55 55 55 55 45
 45 45 45 45 94 94 94 94 62 62 62 39 39 39 39 39 39 39 55 55
 55 55 55 55 45 45 45 45 45 94 94 94 94 62 62 62 49 49 39 39
 39 39 39 55 55 55 55 55 45 45 45 45 45 45 94 94 94 62 62 44
 44 44 44 44 39 39 39 56 56 56 55 55 55 45 45 66 66 66 66 94
 94 23 62 44 44 44 44 44 44 44 44 44 56 56 56 72 72 55 45 66
 66 66 66 66 66 94 23 44 44 44 44 44 44 44 44 44 44 72 72 72
 72 72 72 72 66 66 66 66 66 66 34 44 44 44 44 44 44 44 44 44
 44 72 72 72 72 72 72 72 72 37 37 37 37 37 34 34 34 44 44 44
 44 44 44 44 44 44 72 72 72 72 72 72 72 72 72 37 37 37 37 34
 34 34 34 44 44 44 44 44 44 44 44 72 72 72 72 72 72 72 72 72
 72 37 37 37 34 34 34 34 34 44 44 44 44 44 44 72 72 72 72 72
 72 72 72 72 72 72 68 68 34 34 34 34 34 34 78 44 44 44 44 3
 3 72 72 72 72 72 72 72 72 72 68 68 68 68 34 34 34 34 34 34
 18 18 18 3 3 3 72 72 72 72 72 72 72 72 72 14 14 14 14 34
 34 34 34 34 34 18 18 18 18 3 3 72 72 72 72 72 72 72 72 14
 14 14 14 14 34 34 34 34 93 93 18 18 18 18 18 3 72 72 72 88
 88 88 88 14 14 14 14 14 14 14 34 93 93 93 93 93 18 18 46 46
 20 88 88 88 88 88 88 88 14 14 14 14 14 14 14 93 93 93 93 93
 93 93 46 46 46 20 20 20 88 88 88 88 88 14 14 14 14 14 14 14
 93 93 93 93 93 93 93 46 46 20 20 20 20 88 88 88 88 88 14 14
 14 14 14 14 14 93 93 93 93 93 93 85 85 85 74 74 74 74 74 88
 88 88 88 14 14 14 14 14 14 14 64 64 64 64 64 85 85 85 85 74
 74 74 74 74 74 74 2 2 14 14 14 14 14 14 14 64 64 64 64 64
 85 85 85 85 74 74 74 74 74 74 74 2 2 2 45 45 14 14 14 14
 64 64 64 64 64 85 85 85 85 74 74 74 74 74 74 74 2 2 2 45
 45 45 45 45 45 64 64 64 64 64 85 85 85 57 57 74 74 74 74 74
 55 2 2 2 45 45 45 45 45 45 75 94 64 64 64 85 85 85 57 57
 74 74 74 74 55 55 55 55 45 45 45 45 45 45 45 94 94 94 62 62
 62 39 39 39 39 39 39 74 55 55 55 55 55 45 45 45 45 45 45 75
 94 94 94 62 62 62 39 39 39 39 39 39 55 55 55 55 55 55 55 45
 45 45 45 45 31 94 94 94 94 62 62 49 39 39 22 22 39 39 55 55
 55 55 55 55 45 45 45 45 45 31 94 94 94 94 62 49 49 49 49 39
 39 39 39 55 55 55 55 55 55 45 45 45 45 45 31 94 94 94 62 44
 49 49 49 49 39 39 39 56 56 55 55 55 55 55 45 45 45 45 45 31
 94 94 94 44 44 44 44 49 44 44 44 44 56 56 56 56 55 55 40 40
 40 66 66 66 31 86 94 44 44 44 44 44 44 44 44 44 44 56 56 56
 56 55 55 40 40 66 66 66 66 66 91 91 44 44 44 44 44 44 44 44
 44 44 56 56 56 72 72 72 72 40 66 66 66 66 66 91 91 44 44 44
 44 44 44 44 44 44 44 72 72 72 72 72 72 72 37 37 37 37 37 91
 91 91 44 44 44 44 44 44 44 44 44 72 72 72 72 72 72 72 72 72
 37 37 37 37 91 34 34 34 44 44 44 44 44 44 44 44 72 72 72 72
 72 72 72 72 72 72 37 37 81 34 34 34 34 34 44 44 44 44 44 44
 3 72 72 72 72 72 72 72 72 72 72 81 81 81 34 34 34 34 34 44
 44 44 44 44 3 3 72 72 72 72 72 72 72 72 72 72 14 14 34 34
 34 34 34 34 18 18 18 18 18 3 3 72 72 72 72 72 72 72 72 72
 14 14 14 14 34 34 34 34 34 18 18 18 18 18 3 3 72 72 72 72
 72 72 72 72 14 14 14 14 14 14 34 34 34 93 18 18 18 18 18 18
 3 72 88 88 88 88 88 88 14 14 14 14 14 14 14 34 93 93 93 93
 18 18 18 18 20 20 88 88 88 88 88 88 88 88 14 14 14 14 14 14
 93 93 93 93 93 93 18 18 20 20 20 20 20 88 88 88 88 88 88 14
 14 14 14 14 14 64 64 64 64 64 93 85 85 20 20 20 20 20 20 88
 88 88 88 14 14 14 14 14 14 14 64 64 64 64 64 85 85 85 85 74
 74 74 74 74 88 88 88 88 14 14 14 14 14 14 14 64 64 64 64 64
 85 85 85 85 74 74 74 74 74 74 74 2 2 2 14 14 14 14 14 14
 64 64 64 64 64 85 85 85 85 74 74 74 74 74 74 74 2 2 2 2
 45 14 14 14 64 64 64 64 64 64 85 85 85 85 57 74 74 74 74 74
 2 2 2 2 2 45 45 45 14 64 64 64 64 64 64 85 85 85 57 57
 57 74 74 74 74 2 2 2 2 45 45 45 45 45 75 75 75 75 75 64
 85 85 85 57 57 57 74 74 74 92 92 2 2 2 45 45 45 45 45 75
 75 75 75 75 64 85 85 85 57 57 57 74 74 55 55 92 92 92 92 45
 45 45 45 45 75 31 31 31 31 62 49 49 49 22 22 22 22 55 55 55
 55 55 92 92 45 45 45 45 31 31 31 31 31 31 31 49 49 49 22 22
 22 22 22 55 55 55 55 55 92 45 45 45 45 31 31 31 31 31 31 31
 49 49 49 49 22 22 22 56 56 55 55 55 55 55 45 45 45 45 31 31
 31 31 31 31 49 49 49 49 49 49 49 22 56 56 56 55 55 55 40 40
 40 40 40 31 31 31 31 31 44 44 44 49 49 49 44 44 44 56 56 56
 56 55 40 40 40 40 40 40 40 31 86 86 86 44 44 44 44 44 44 44
 44 44 56 56 56 56 56 40 40 40 40 40 40 40 91 91 91 91 44 44
 44 44 44 44 44 44 44 56 56 56 72 72 72 40 40 40 40 40 91 91
 91 91 91 44 44 44 44 44 44 44 44 44 72 72 72 72 72 72 72 40
 40 37 37 91 91 91 91 91 91 44 44 44 44 44 44 44 44 72 72 72
 72 72 72 72 72 40 37 81 81 91 91 91 91 91 44 44 44 44 44 44