# vtk DataFile Version 2.0
Data set from ImportExport Version 6.5.141.ec284b7a5
ASCII

DATASET RECTILINEAR_GRID
DIMENSIONS 26 26 26
X_COORDINATES 26 float
-3.000000 3.000000 9.000000 15.000000 21.000000 27.000000 33.000000 39.000000 45.000000 51.000000 57.000000 63.000000 69.000000 75.000000 81.000000 87.000000 93.000000 99.000000 105.000000 111.000000 117.000000 
123.000000 129.000000 135.000000 141.000000 147.000000 
Y_COORDINATES 26 float
-3.000000 3.000000 9.000000 15.000000 21.000000 27.000000 33.000000 39.000000 45.000000 51.000000 57.000000 63.000000 69.000000 75.000000 81.000000 87.000000 93.000000 99.000000 105.000000 111.000000 117.000000 
123.000000 129.000000 135.000000 141.000000 147.000000 
Z_COORDINATES 26 float
-3.000000 3.000000 9.000000 15.000000 21.000000 27.000000 33.000000 39.000000 45.000000 51.000000 57.000000 63.000000 69.000000 75.000000 81.000000 87.000000 93.000000 99.000000 105.000000 111.000000 117.000000 
123.000000 129.000000 135.000000 141.000000 147.000000 
CELL_DATA 15625
SCALARS FeatureIds int 1
LOOKUP_TABLE default
 54 54 54 54 54 54 54 83 93 93 93 93 103 103 103 103 15 15 15 15
 15 15 2 2 2 2 54 54 54 54 54 83 83 83 83 93 103 103 103 103
 103 15 15 15 15 2 2 2 2 2 2 2 2 54 54 83 83 83 83 83
 83 83 103 103 103 102 102 102 2 2 2 2 2 2 2 2 2 2 2 83
 83 83 83 83 83 83 83 83 103 102 102 102 102 2 2 2 2 2 2 2
 2 2 2 2 83 83 83 83 83 83 83 83 83 87 102 102 102 102 2 2
 2 2 2 2 2 2 2 2 2 83 83 83 83 83 83 83 83 83 87 102
 102 102 2 2 2 2 2 2 2 2 2 2 2 2 1 83 83 83 83 83
 83 83 83 87 102 102 102 2 2 2 2 2 2 2 2 2 2 2 1 1
 83 83 83 83 83 83 83 83 87 102 102 16 2 2 2 2 2 2 2 2
 69 69 69 1 1 100 100 100 100 100 100 100 100 100 100 16 16 16 2 2
 2 2 2 69 69 69 69 69 69 100 100 100 100 100 100 100 100 100 100 100
 16 40 40 2 2 2 2 69 69 69 69 69 69 42 100 100 100 100 100 100
 100 100 100 100 100 40 40 40 40 2 73 73 69 69 69 69 73 73 42 42
 100 100 100 100 100 100 68 68 100 100 40 40 40 40 40 73 73 73 73 73
 73 73 73 42 42 100 100 100 100 100 100 100 100 100 100 40 40 40 40 66
 73 73 73 73 73 73 73 42 42 42 42 100 100 100 100 100 100 100 3 3
 66 66 66 66 66 73 73 73 73 73 73 73 73 42 42 42 42 100 100 100
 100 100 100 3 66 66 66 66 66 66 73 73 73 73 73 73 73 73 42 42
 42 42 100 100 100 100 100 100 66 66 66 66 66 66 66 66 73 73 73 73
 73 73 54 54 54 42 53 53 53 100 100 11 11 66 66 66 66 66 66 66
 66 66 73 73 73 73 54 54 54 54 54 53 53 53 53 11 11 11 11 11
 66 66 66 66 66 66 66 73 73 73 54 54 54 54 54 54 54 53 53 53
 11 11 11 11 11 66 9 9 66 15 15 15 15 15 73 54 54 54 54 54
 54 55 55 55 55 55 11 11 11 11 9 9 9 15 15 15 15 15 15 15
 54 54 54 54 54 54 55 55 55 55 55 11 11 11 11 9 9 9 15 15
 15 15 15 15 15 54 54 54 54 54 54 55 55 55 55 55 93 11 11 11
 9 15 15 15 15 15 15 15 15 54 54 54 54 54 54 54 55 55 55 55
 93 93 93 93 71 71 15 15 15 15 15 15 15 15 54 54 54 54 54 54
 54 55 55 55 55 93 93 93 93 71 71 15 15 15 15 15 15 15 15 54
 54 54 54 54 54 54 55 55 55 55 93 93 93 93 71 71 15 15 15 15
 15 15 15 15 54 54 54 54 54 54 54 54 93 93 93 93 93 93 93 93
 93 15 15 15 15 15 15 2 2 2 2 54 54 54 54 54 83 83 83 93
 93 93 93 93 93 93 15 15 15 15 2 2 2 2 2 2 2 2 54 54
 83 83 83 83 83 83 83 83 103 102 102 102 15 2 2 2 2 2 2 2
 2 2 2 2 83 83 83 83 83 83 83 83 83 83 102 102 102 102 2 2
 2 2 2 2 2 2 2 2 2 83 83 83 83 83 83 83 83 83 83 102
 102 102 102 2 2 2 2 2 2 2 2 2 2 2 83 83 83 83 83 83
 83 83 83 83 102 102 102 102 2 2 2 2 2 2 2 2 2 2 2 1
 1 83 83 83 83 83 83 83 83 102 102 102 2 2 2 2 2 2 2 2
 2 2 2 1 1 1 83 83 83 83 83 83 83 4 4 16 16 16 2 2
 2 2 2 2 2 69 69 69 1 1 1 100 100 100 100 100 100 100 100 4
 16 16 16 16 2 2 2 2 69 69 69 69 69 69 1 100 100 100 100 100
 100 100 100 100 100 16 16 16 16 2 2 2 69 69 69 69 69 69 42 42
 100 100 100 100 100 100 68 68 68 68 16 40 40 40 2 2 69 69 69 69
 69 69 69 42 42 42 100 100 100 100 68 68 68 68 68 40 40 40 40 66
 73 73 73 69 69 73 73 42 42 42 42 42 100 100 100 68 68 68 68 68
 66 40 40 40 66 66 73 73 73 73 73 73 42 42 42 42 42 100 100 100
 100 100 100 66 66 66 66 66 66 66 66 73 73 73 73 73 73 42 42 42
 42 42 42 100 100 100 100 66 66 66 66 66 66 66 66 66 66 73 73 73
 73 73 42 42 42 42 42 42 100 100 100 100 66 66 66 66 66 66 66 66
 66 66 73 73 73 73 73 54 42 42 53 53 53 53 53 11 11 66 66 66
 66 66 66 66 66 66 66 73 73 73 73 54 54 54 54 53 53 53 53 53
 11 11 11 11 66 66 66 66 66 66 66 66 73 73 73 54 54 54 54 54
 54 54 53 53 53 11 11 11 11 11 66 66 66 66 15 15 15 15 15 73
 54 54 54 54 54 54 54 55 55 55 11 11 11 11 11 11 66 15 15 15
 15 15 15 15 15 54 54 54 54 54 54 54 55 55 55 93 11 11 11 11
 11 15 15 15 15 15 15 15 15 15 54 54 54 54 54 54 54 55 55 55
 93 93 93 11 11 15 15 15 15 15 15 15 15 15 54 54 54 54 54 54
 54 54 55 55 93 93 93 93 93 71 71 15 15 15 15 15 15 15 15 54
 54 54 54 54 54 54 54 55 55 93 93 93 93 93 71 71 71 15 15 15
 15 15 15 15 54 54 54 54 54 54 54 54 55 55 93 93 93 93 93 71
 71 71 15 15 15 15 15 15 15 54 54 54 54 54 54 54 54 93 93 93
 93 93 93 93 93 93 15 15 15 15 15 15 2 2 2 2 54 54 54 54
 23 23 83 93 93 93 93 93 93 93 93 15 15 15 15 2 2 2 2 2
 2 2 54 54 23 23 23 83 83 83 83 83 83 83 102 102 102 15 2 2
 2 2 2 2 2 2 2 2 23 23 23 23 83 83 83 83 83 83 83 102
 102 102 102 2 2 2 2 2 2 2 2 2 2 23 23 23 23 83 83 83
 83 83 83 83 102 102 102 102 2 2 2 2 2 2 2 2 2 2 23 23
 23 23 83 83 83 83 83 83 83 102 102 102 2 2 2 2 2 2 2 2
 2 2 2 1 1 1 23 83 83 83 83 83 83 4 4 4 16 2 2 2
 2 2 2 2 2 2 2 1 1 1 1 1 83 83 83 83 83 4 4 4
 16 16 16 16 2 2 2 2 2 2 69 69 1 1 1 1 1 83 83 83
 83 4 4 4 4 16 16 16 16 2 2 2 2 69 69 69 69 69 1 1
 1 100 100 100 100 100 100 100 4 25 16 16 16 16 16 2 2 69 69 69
 69 69 69 42 42 42 100 100 100 100 100 68 68 25 25 16 16 16 16 16
 2 69 69 69 69 69 69 42 42 42 42 42 100 100 100 68 68 68 68 25
 40 40 40 40 66 66 66 69 69 69 69 69 42 42 42 42 42 42 100 100
 100 68 68 25 25 66 66 66 66 66 66 66 73 73 69 73 73 42 42 42
 42 42 42 100 100 100 100 68 66 66 66 66 66 66 66 66 66 73 73 73
 73 73 42 42 42 42 42 42 42 100 100 35 66 66 66 66 66 66 66 66
 66 66 66 73 73 73 42 42 42 42 42 42 42 42 100 100 66 66 66 66
 66 66 66 66 66 66 66 66 73 73 73 73 42 42 42 42 53 53 53 53
 53 66 66 66 66 66 66 66 66 66 66 66 66 73 73 73 54 54 54 54
 67 67 53 53 53 11 11 11 11 66 66 66 66 66 66 66 66 66 66 73
 54 54 54 54 54 67 67 53 53 53 11 11 11 11 11 66 66 66 66 15
 15 15 15 15 15 54 54 54 54 54 54 54 54 55 55 11 11 11 11 11
 11 66 15 15 15 15 15 15 15 15 54 54 54 54 54 54 54 54 55 93
 93 93 11 11 11 11 15 15 15 15 15 15 15 15 85 54 54 54 54 54
 54 54 55 55 93 93 93 93 93 93 15 15 15 15 15 15 15 15 15 85
 54 54 54 54 54 54 54 55 55 93 93 93 93 93 93 71 15 15 15 15
 15 15 15 15 85 54 54 54 54 54 54 54 55 93 93 93 93 93 93 71
 71 15 15 15 15 15 15 15 15 54 54 54 54 54 54 54 54 55 93 93
 93 93 93 93 71 71 15 15 15 15 15 15 15 15 54 54 54 54 54 54
 54 54 93 93 93 93 93 93 93 93 93 15 15 15 15 15 15 2 2 2
 2 54 54 54 54 23 23 23 93 93 93 93 93 93 93 93 98 15 15 15
 2 2 2 2 2 2 54 54 54 23 23 23 23 83 83 83 93 93 93 102
 102 98 98 98 98 2 2 2 2 2 2 2 81 23 23 23 23 23 83 83
 83 83 83 83 102 102 102 98 2 2 2 2 2 2 2 2 2 2 23 23
 23 23 23 83 83 83 83 83 4 4 102 102 102 2 2 2 2 2 2 2
 2 2 2 1 23 23 23 23 83 83 83 83 4 4 4 4 4 2 2 2
 2 2 2 2 2 2 2 1 1 1 1 23 83 83 83 83 83 4 4 4
 4 4 16 2 2 2 2 2 2 2 2 2 1 1 1 1 1 1 83 83
 83 4 4 4 4 4 16 16 16 2 2 2 2 2 2 69 69 1 1 1
 1 1 1 99 99 99 4 4 4 4 16 16 16 16 16 2 2 2 69 69
 69 69 1 1 1 1 1 100 99 99 99 4 4 4 25 16 16 16 16 16
 2 2 69 69 69 69 69 69 42 42 42 42 100 100 100 100 68 25 25 25
 25 16 16 16 16 2 2 69 69 69 69 69 42 42 42 42 42 42 100 100
 100 68 25 25 25 25 25 16 66 66 66 66 69 69 69 69 42 42 42 42
 42 42 42 42 100 100 68 25 25 25 25 66 66 66 66 66 66 66 73 69
 73 42 42 42 42 42 42 42 42 100 100 35 66 66 66 66 66 66 66 66
 66 66 66 73 73 73 42 42 42 42 42 42 42 42 42 35 35 66 66 66
 66 66 66 66 66 66 66 66 73 73 73 42 42 42 42 42 42 42 42 42
 35 35 66 66 66 66 66 66 66 66 66 66 66 73 73 73 42 42 42 42
 67 67 67 53 53 35 35 66 66 66 66 66 66 66 66 66 66 66 66 73
 85 85 54 54 67 67 67 67 53 94 94 66 66 66 66 66 66 66 66 66
 66 66 66 66 85 85 85 54 54 67 67 67 67 53 94 94 11 11 11 66
 66 66 66 66 15 15 15 15 15 85 85 85 54 54 54 67 67 67 67 94
 11 11 11 11 11 66 66 15 15 15 15 15 15 85 85 85 54 54 54 54
 54 54 54 94 93 93 93 93 11 11 11 15 15 15 15 15 15 15 85 85
 85 54 54 54 54 54 54 55 93 93 93 93 93 93 93 15 15 15 15 15
 15 15 15 85 85 85 54 54 54 54 54 54 54 93 93 93 93 93 93 93
 15 15 15 15 15 15 15 15 85 85 85 54 54 54 54 54 54 54 93 93
 93 93 93 93 93 15 15 15 15 15 15 15 15 85 85 54 54 54 54 54
 54 54 93 93 93 93 93 93 93 93 71 15 15 15 15 15 15 15 85 85
 85 85 54 54 54 54 23 93 93 93 93 93 93 93 93 93 98 98 15 15
 15 15 2 85 85 81 81 81 54 23 23 23 23 93 93 93 93 93 93 93
 98 98 98 98 98 98 2 2 2 2 81 81 81 81 23 23 23 23 23 83
 83 93 93 93 98 98 98 98 98 98 98 2 2 2 2 81 81 81 81 23
 23 23 23 23 83 83 83 4 4 4 98 98 98 98 98 2 2 2 2 2
 81 81 81 23 23 23 23 23 83 83 83 83 4 4 4 4 98 98 98 98
 2 2 2 2 2 2 81 81 1 23 23 23 23 83 83 83 4 4 4 4
 4 4 98 98 2 2 2 2 2 2 2 2 1 1 1 1 1 23 83 83
 83 4 4 4 4 4 4 16 2 2 2 2 2 2 2 2 2 1 1 1
 1 1 1 99 99 99 4 4 4 4 4 16 16 16 2 2 2 2 2 2
 69 69 1 1 1 1 1 1 99 99 99 4 4 4 4 4 16 16 16 16
 2 2 2 2 69 69 69 1 1 1 1 1 99 99 99 99 99 4 4 25
 25 16 16 16 16 2 2 69 69 69 69 69 69 42 42 42 42 99 99 99
 99 99 25 25 25 25 25 16 16 16 16 2 69 69 69 69 69 42 42 42
 42 42 42 99 99 99 99 25 25 25 25 25 25 66 66 66 66 69 69 69
 69 42 42 42 42 42 42 42 42 99 99 99 25 25 25 25 25 66 66 66
 66 66 66 64 64 73 42 42 42 42 42 42 42 42 42 35 35 66 25 66
 66 66 66 66 66 66 66 64 64 64 73 42 42 42 42 42 42 42 42 35
 35 35 35 66 66 66 66 66 66 66 66 66 66 64 64 73 42 42 42 42
 42 42 42 42 35 35 35 35 66 66 66 66 66 66 66 66 66 66 64 64
 85 85 42 42 42 67 67 67 67 94 35 35 35 66 66 66 66 66 66 66
 66 66 66 66 85 85 85 85 67 67 67 67 67 94 94 94 35 66 66 66
 66 66 66 66 66 66 66 66 85 85 85 85 85 85 67 67 67 67 94 94
 94 94 66 66 66 66 66 66 66 66 15 15 15 85 85 85 85 85 85 54
 67 67 67 94 94 94 94 11 11 66 66 66 15 15 15 15 15 15 85 85
 85 85 85 85 54 54 54 94 94 94 93 93 93 93 11 66 15 15 15 15
 15 15 15 85 85 85 85 85 54 54 54 54 54 94 93 93 93 93 93 93
 15 15 15 15 15 15 15 15 85 85 85 85 85 54 54 54 54 54 93 93
 93 93 93 93 93 15 15 15 15 15 15 15 85 85 85 85 85 85 54 54
 54 54 93 93 93 93 93 93 93 93 15 15 15 15 15 15 15 85 85 85
 85 85 54 54 54 54 54 93 93 93 93 93 93 93 93 15 15 15 15 15
 15 15 85 85 85 85 85 85 85 85 85 23 93 93 93 93 93 93 93 79
 79 98 98 98 98 98 98 85 85 85 81 81 81 81 23 23 23 23 93 93
 93 93 93 93 79 98 98 98 98 98 98 98 98 85 85 81 81 81 81 23
 23 23 23 23 93 93 93 93 93 98 98 98 98 98 98 98 98 2 2 81
 81 81 81 81 23 23 23 23 23 83 83 83 4 4 98 98 98 98 98 98
 98 98 2 2 81 81 81 81 81 23 23 23 23 23 57 83 4 4 4 4
 98 98 98 98 98 98 2 2 2 81 81 81 81 1 23 23 23 23 57 57
 57 4 4 4 4 41 98 98 98 98 98 2 2 2 2 2 2 1 1 1
 1 1 1 99 99 99 4 4 4 4 4 98 98 98 98 2 2 2 2 2
 2 1 1 1 1 1 1 1 99 99 99 4 4 4 4 4 4 16 16 2
 2 2 2 2 2 69 1 1 1 1 1 1 99 99 99 99 4 4 4 4
 4 16 16 16 16 2 2 2 2 2 69 69 1 1 1 1 1 99 99 99
 99 99 4 4 25 25 25 16 16 16 2 2 44 44 44 69 69 1 1 42
 42 99 99 99 99 99 99 25 25 25 25 25 25 25 66 66 44 44 44 44
 44 44 42 42 42 42 42 99 99 99 99 99 25 25 25 25 25 25 66 66
 66 66 44 44 44 44 42 42 42 42 42 42 42 99 99 99 99 25 25 25
 25 25 25 66 66 66 66 64 64 64 44 42 42 42 42 42 42 42 42 35
 35 35 25 25 25 25 66 66 66 66 66 66 64 64 64 44 42 42 42 42
 42 42 42 42 35 35 35 35 66 66 66 66 66 66 66 66 66 64 64 64
 85 42 42 42 42 42 42 42 42 35 35 35 35 66 66 66 66 66 66 66
 66 66 66 64 64 85 85 85 42 42 42 67 67 94 94 35 35 35 66 66
 66 66 66 66 66 66 66 66 66 85 85 85 85 85 67 67 67 67 94 94
 94 35 35 66 66 66 66 66 66 66 66 66 66 85 85 85 85 85 85 85
 67 67 94 94 94 94 94 94 66 66 66 66 66 66 66 15 15 85 85 85
 85 85 85 85 85 67 67 94 94 94 94 94 94 11 66 66 66 15 15 15
 15 15 85 85 85 85 85 85 85 85 85 94 94 94 94 94 94 93 93 93
 66 15 15 15 15 15 15 85 85 85 85 85 85 85 85 85 54 94 94 94
 93 93 93 93 93 15 15 15 15 15 15 15 85 85 85 85 85 85 85 85
 85 54 94 94 93 93 93 93 93 93 15 15 15 15 15 15 15 85 85 85
 85 85 85 85 85 85 85 93 93 93 93 93 93 93 93 15 15 15 15 15
 15 15 85 85 85 85 85 85 85 85 85 85 93 93 93 93 93 93 93 93
 79 15 15 15 15 15 15 85 85 85 85 85 85 85 85 85 23 93 93 93
 93 93 93 79 79 79 98 98 98 98 98 98 98 85 85 81 81 81 85 85
 23 23 23 57 93 93 93 93 79 79 79 98 98 98 98 98 98 98 85 85
 81 81 81 81 23 23 23 23 57 57 57 57 93 98 98 98 98 98 98 98
 98 98 98 81 81 81 81 81 81 23 23 23 23 57 57 57 57 4 98 98
 98 98 98 98 98 98 98 98 81 81 81 81 81 81 23 23 23 23 57 57
 57 57 4 4 41 41 98 98 98 98 98 98 2 2 81 81 81 81 1 23
 23 23 23 57 57 57 4 4 4 41 41 41 98 98 98 98 98 2 2 2
 27 27 1 1 1 1 1 99 99 99 99 4 4 4 4 41 41 98 98 98
 98 2 2 2 2 27 27 1 1 1 1 1 99 99 99 99 4 4 4 4
 4 4 98 98 98 98 2 2 2 2 27 27 1 1 1 1 99 99 99 99
 99 99 4 4 4 4 25 25 16 16 2 2 2 2 44 44 44 1 1 1
 1 99 99 99 99 99 99 4 4 25 25 25 25 25 16 44 44 44 44 44
 44 44 1 1 1 42 99 99 99 99 99 99 99 25 25 25 25 25 25 66
 44 44 44 44 44 44 44 62 62 62 62 62 99 99 99 99 99 25 25 25
 25 25 25 25 66 66 44 44 44 44 44 44 62 62 62 62 62 62 99 99
 99 99 25 25 25 25 25 25 66 66 66 44 44 44 44 44 44 42 62 62
 62 62 62 99 99 99 63 63 25 25 25 66 66 66 66 66 66 64 64 44
 44 62 62 62 62 62 62 62 62 35 35 35 63 63 63 66 66 66 66 66
 66 66 64 64 64 85 85 62 62 62 62 62 62 35 35 35 35 35 63 63
 66 66 66 66 66 66 66 66 64 64 85 85 85 85 62 42 67 94 94 94
 35 35 35 63 63 66 66 66 66 66 66 66 66 85 85 85 85 85 85 85
 67 94 94 94 94 94 94 63 63 63 66 66 66 66 66 66 66 85 85 85
 85 85 85 85 85 85 94 94 94 94 94 94 94 63 63 66 66 66 66 66
 15 85 85 85 85 85 85 85 85 85 85 94 94 94 94 94 94 94 94 63
 66 66 15 15 15 15 85 85 85 85 85 85 85 85 85 85 94 94 94 94
 94 94 94 94 94 66 15 15 15 15 15 15 85 85 85 85 85 85 85 85
 85 94 94 94 94 94 94 93 93 93 15 15 15 15 15 15 85 85 85 85
 85 85 85 85 85 85 85 94 94 94 93 93 93 93 93 79 15 15 15 15
 15 85 85 85 85 85 85 85 85 85 85 85 94 94 93 93 93 93 93 79
 79 79 15 15 15 15 85 85 85 85 85 85 85 85 85 85 85 93 93 93
 93 93 93 93 79 79 79 79 98 98 98 85 85 85 85 85 85 85 85 85
 85 23 57 57 93 93 93 93 79 79 79 79 98 98 98 98 98 98 85 85
 81 85 85 85 85 23 23 57 57 57 57 57 79 79 79 79 79 98 98 98
 98 98 98 85 85 81 81 81 81 23 23 23 57 57 57 57 57 79 79 79
 98 98 98 98 98 98 98 98 98 81 81 81 81 81 23 23 23 57 57 57
 57 57 57 79 98 98 98 98 98 98 98 98 98 81 81 81 81 81 81 23
 23 57 57 57 57 57 57 57 4 41 41 98 98 98 98 98 98 98 81 81
 27 27 27 27 23 23 57 57 57 57 57 57 4 4 41 41 41 98 98 98
 98 98 98 27 27 27 27 27 27 1 1 57 57 57 57 57 57 4 4 41
 41 41 98 98 98 98 98 98 27 27 27 27 27 27 1 1 99 99 99 99
 99 4 4 4 4 4 98 98 98 98 98 98 27 27 27 27 27 27 1 1
 99 99 99 99 99 99 99 4 4 4 4 25 98 98 98 44 44 44 44 44
 27 27 27 1 1 99 99 99 99 99 99 99 99 4 25 25 25 25 25 25
 44 44 44 44 44 44 44 27 62 62 99 99 99 99 99 99 99 99 25 25
 25 25 25 25 66 44 44 44 44 44 44 44 62 62 62 62 62 99 99 99
 99 99 99 25 25 25 25 25 25 66 66 44 44 44 44 44 44 62 62 62
 62 62 62 99 99 99 99 63 25 25 25 25 25 66 66 66 44 44 44 44
 44 44 62 62 62 62 62 62 99 99 99 63 63 63 63 63 66 66 66 66
 66 44 44 44 44 44 44 62 62 62 62 62 62 62 99 63 63 63 63 63
 63 66 66 66 66 66 66 64 64 44 44 85 62 62 62 62 62 62 94 63
 63 63 63 63 63 63 63 66 66 66 66 66 64 64 44 85 85 85 85 62
 34 62 94 94 94 94 63 63 63 63 63 63 66 66 66 66 66 36 85 85
 85 85 85 85 85 34 94 94 94 94 94 94 63 63 63 63 63 66 66 66
 66 36 36 85 85 85 85 85 85 85 85 94 94 94 94 94 94 94 63 63
 63 63 66 66 10 36 36 36 85 85 85 85 85 85 85 85 94 94 94 94
 94 94 94 63 63 63 63 15 10 10 10 36 36 85 85 85 85 85 85 85
 85 94 94 94 94 94 94 94 94 63 63 63 15 10 10 10 85 85 85 85
 85 85 85 85 85 85 85 94 94 94 94 94 94 94 79 79 79 15 15 10
 85 85 85 85 85 85 85 85 85 85 85 85 94 94 94 94 94 93 93 79
 79 79 15 15 15 85 85 85 85 85 85 85 85 85 85 85 85 94 39 39
 93 93 93 79 79 79 79 79 98 98 98 85 85 85 85 85 85 85 85 85
 85 85 39 39 39 93 93 93 79 79 79 79 79 98 98 98 85 85 85 85
 85 85 85 85 85 85 57 57 57 57 57 93 79 79 79 79 79 79 98 98
 98 98 98 85 85 85 85 85 85 85 85 57 57 57 57 57 57 79 79 79
 79 79 98 98 98 98 98 98 85 85 27 27 27 85 76 57 57 57 57 57
 57 57 57 79 79 79 98 98 98 98 98 98 98 98 85 27 27 27 27 23
 57 57 57 57 57 57 57 57 79 98 98 98 98 98 98 98 98 98 98 27
 27 27 27 27 27 57 57 57 57 57 57 57 57 57 41 98 98 98 98 98
 98 98 98 98 27 27 27 27 27 27 57 57 57 57 57 57 57 57 4 41
 41 98 98 98 98 98 98 98 27 27 27 27 27 27 27 1 57 57 57 57
 57 57 57 4 41 41 98 98 98 98 98 98 27 27 27 27 27 27 27 27
 99 99 99 99 57 57 57 4 4 59 59 98 98 98 98 98 98 27 27 27
 27 27 27 27 27 99 99 99 99 99 99 99 99 4 59 59 59 98 98 98
 98 44 27 27 27 27 27 27 27 27 99 99 99 99 99 99 99 99 99 25
 25 25 25 25 25 44 44 44 44 44 44 27 27 27 62 99 99 99 99 99
 99 99 99 99 25 25 25 25 25 44 44 44 44 44 44 44 27 27 62 62
 62 62 99 99 99 99 99 99 63 25 25 25 25 25 66 44 44 44 44 44
 44 44 62 62 62 62 62 99 99 99 99 99 63 63 63 63 25 25 66 66
 44 44 44 44 44 44 44 62 62 62 62 62 62 99 99 63 63 63 63 63
 63 63 66 66 66 66 44 44 44 44 44 62 62 62 62 62 62 62 62 63
 63 63 63 63 63 63 63 63 66 66 66 44 44 44 44 85 85 62 62 62
 62 62 62 63 63 63 63 63 63 63 63 63 63 66 66 66 66 44 44 44
 85 85 85 85 34 34 34 94 94 94 63 63 63 63 63 63 63 63 66 66
 66 36 36 36 85 85 85 85 85 34 34 34 94 94 94 94 63 63 63 63
 63 63 63 66 10 36 36 36 36 85 85 85 85 85 34 34 34 94 94 94
 94 94 63 63 63 63 63 63 10 10 36 36 36 36 36 85 85 85 85 85
 85 94 94 94 94 94 94 94 63 63 63 63 63 10 10 10 10 36 36 36
 85 85 85 85 85 85 94 94 94 94 94 94 94 63 63 63 63 15 10 10
 10 10 36 36 85 85 85 85 58 58 85 85 94 94 94 94 94 94 63 79
 79 79 82 82 10 10 85 85 85 85 85 85 85 85 58 85 85 39 39 39
 39 39 39 79 79 79 79 79 82 82 82 85 85 85 85 85 85 85 85 85
 85 85 39 39 39 39 39 39 79 79 79 79 79 79 98 98 85 85 85 85
 85 85 85 85 85 85 85 39 39 39 39 39 79 79 79 79 79 79 98 98
 98 85 85 85 85 85 85 85 85 85 85 95 95 39 39 39 39 79 79 79
 79 79 79 98 98 98 98 98 85 85 85 85 85 85 85 76 57 57 57 57
 57 57 43 79 79 79 79 98 98 98 98 98 98 98 85 27 27 27 27 76
 76 57 57 57 57 57 57 43 43 79 79 98 98 98 98 98 98 98 98 27
 27 27 27 27 76 57 57 57 57 57 57 57 43 43 43 98 98 98 98 98
 98 98 98 27 27 27 27 27 27 27 57 57 57 57 57 57 57 57 43 43
 98 98 98 98 98 98 98 98 27 27 27 27 27 27 27 27 57 57 57 57
 57 57 57 43 98 98 98 98 98 98 98 98 98 27 27 27 27 27 27 27
 27 57 57 57 57 57 57 57 59 59 59 98 98 98 98 98 98 27 27 27
 27 27 27 27 27 27 57 57 57 57 57 57 57 59 59 59 59 98 98 98
 98 98 27 27 27 27 27 27 27 27 27 99 99 99 99 99 99 99 59 59
 59 59 98 98 98 98 77 27 27 27 27 27 27 27 27 99 99 99 99 99
 99 99 99 99 21 21 21 21 98 77 77 77 44 27 27 27 27 27 27 27
 99 99 99 99 99 99 99 99 99 21 21 21 21 25 44 44 44 44 44 44
 27 27 27 27 62 62 62 99 99 99 99 99 99 63 63 63 25 25 25 66
 44 44 44 44 44 44 27 27 62 62 62 62 99 99 99 99 63 63 63 63
 63 63 63 66 66 44 44 44 44 44 44 27 62 62 62 62 62 62 99 99
 63 63 63 63 63 63 63 63 63 66 48 48 48 44 44 44 26 26 26 26
 26 26 26 26 63 63 63 63 63 63 63 63 63 63 66 48 48 48 48 44
 85 26 26 26 26 26 26 26 26 63 63 63 63 63 63 63 63 63 63 63
 18 48 48 48 36 85 85 85 26 34 34 34 26 94 63 63 63 63 63 63
 63 63 63 63 63 18 36 36 36 36 85 85 85 34 34 34 34 34 94 94
 94 63 63 63 63 63 63 63 63 10 36 36 36 36 36 85 85 85 85 34
 34 34 94 94 94 94 94 63 63 63 63 63 63 10 10 36 36 36 36 36
 85 85 85 85 85 34 34 94 94 94 94 94 63 63 63 63 63 82 10 10
 10 10 36 36 36 85 85 85 58 58 85 94 94 94 94 94 94 94 63 63
 63 82 82 82 10 10 10 36 36 36 85 85 58 58 58 58 58 94 94 94
 94 94 94 63 63 82 82 82 82 82 82 85 85 85 85 85 85 85 58 58
 58 58 39 39 39 39 39 95 79 79 79 82 82 82 82 82 85 85 85 85
 85 85 85 85 58 85 85 39 39 39 39 39 39 79 79 79 79 79 82 82
 82 85 85 85 85 85 85 85 85 85 85 85 39 39 39 39 39 39 79 79
 79 79 79 98 98 98 85 85 85 85 85 85 85 85 85 95 95 95 95 95
 95 95 79 79 79 79 79 79 98 98 98 98 98 85 85 85 85 85 85 76
 76 76 95 57 57 57 57 43 43 79 79 79 98 98 98 98 98 98 98 27
 27 27 27 76 76 76 76 57 57 57 57 57 43 43 43 98 98 98 98 98
 98 98 98 27 27 27 27 27 27 76 76 76 57 57 57 57 57 43 43 43
 98 98 98 98 98 98 98 98 27 27 27 27 27 27 76 76 52 52 57 57
 57 57 43 43 43 98 98 98 98 98 98 98 98 27 27 27 27 27 27 27
 52 52 52 57 57 57 57 57 43 43 98 98 98 98 98 98 98 27 27 27
 27 27 27 27 27 27 52 52 57 57 57 57 57 32 59 98 98 98 98 98
 98 27 27 27 27 27 27 27 27 27 27 57 57 57 57 57 57 57 32 59
 59 59 98 98 98 77 27 27 27 27 27 27 27 27 27 27 99 99 99 99
 99 99 99 32 21 21 21 21 98 77 77 77 27 27 27 27 27 27 27 27
 27 99 99 99 99 99 99 99 32 21 21 21 21 77 77 77 77 77 27 27
 27 27 27 27 27 27 99 99 99 99 99 99 99 99 21 21 21 21 77 77
 77 77 77 27 27 27 27 27 27 27 26 96 96 96 96 96 96 99 63 63
 21 21 21 21 77 77 77 77 27 27 27 27 27 26 26 26 26 96 96 96
 96 63 63 63 63 63 63 63 66 77 77 77 44 44 44 27 27 26 26 26
 26 26 26 96 96 96 63 63 63 63 63 63 63 18 18 18 48 48 48 44
 27 26 26 26 26 26 26 26 96 96 63 63 63 63 63 63 63 63 18 18
 18 48 48 48 48 85 26 26 26 26 26 26 26 96 63 63 63 63 63 63
 63 63 63 63 18 18 18 48 48 36 85 85 26 26 26 26 26 26 26 63
 63 63 63 63 63 63 63 63 18 18 18 18 36 36 36 85 85 85 26 34
 34 34 34 94 94 63 63 63 63 63 63 63 63 18 18 18 36 36 36 36
 85 85 85 85 34 34 34 94 94 94 94 63 63 63 63 63 63 63 18 18
 36 36 36 36 36 85 85 85 85 85 34 34 94 94 94 94 94 63 63 63
 63 82 82 82 82 10 36 36 36 36 85 85 85 58 58 85 85 94 94 94
 94 94 63 63 37 82 82 82 82 82 82 36 36 36 36 85 85 58 58 58
 58 58 95 95 95 95 95 95 95 37 82 82 82 82 82 82 82 85 85 85
 85 85 85 58 58 58 95 95 39 39 39 95 95 95 79 82 82 82 82 82
 82 82 85 85 85 85 85 85 85 58 58 95 95 39 39 39 95 95 95 79
 79 82 82 82 82 82 82 85 85 85 85 85 85 85 85 85 95 95 39 39
 39 95 95 79 79 79 79 82 82 82 82 82 85 85 85 85 33 33 85 95
 95 95 95 95 95 19 19 95 79 101 101 101 101 101 82 82 82 82 72 85
 33 33 33 76 76 76 76 95 95 95 19 19 43 43 43 101 101 101 101 98
 98 98 98 72 27 27 27 76 76 76 76 76 57 57 57 57 43 43 43 43
 43 101 98 98 98 98 98 98 27 27 27 27 27 76 76 76 76 52 57 57
 57 43 43 43 43 43 98 98 98 98 98 98 98 27 27 27 27 27 27 76
 76 52 52 52 57 57 57 43 43 43 43 98 98 98 98 98 98 27 27 27
 27 27 27 27 27 52 52 52 52 57 57 57 43 43 43 43 98 98 98 98
 98 98 27 27 27 27 27 27 27 27 27 52 52 52 57 57 57 32 32 32
 32 98 98 98 98 77 77 27 27 27 27 27 27 27 27 27 52 52 57 57
 57 57 32 32 32 21 21 98 30 77 77 77 27 27 27 27 27 27 27 27
 27 96 96 96 96 96 96 32 32 21 21 21 21 77 77 77 77 77 27 27
 27 27 27 27 27 27 96 96 96 96 96 96 96 32 21 21 21 21 77 77
 77 77 77 27 27 27 27 27 27 27 27 96 96 96 96 96 96 96 96 21
 21 21 21 77 77 77 77 77 77 27 27 27 27 27 27 96 96 96 96 96
 96 96 96 63 21 21 21 21 21 77 77 77 77 77 27 27 27 27 26 26
 26 96 96 96 96 96 96 63 63 63 63 63 63 18 77 77 77 77 77 77
 27 27 26 26 26 26 26 96 96 96 96 63 63 63 63 63 63 63 18 18
 18 77 77 77 77 27 26 26 26 26 26 26 26 96 96 96 63 63 63 63
 63 63 18 18 18 18 18 48 48 48 26 26 26 26 26 26 26 26 96 63
 63 63 63 63 63 63 63 18 18 18 18 18 18 18 36 85 85 26 26 26
 26 26 26 26 63 63 63 63 63 63 63 63 18 18 18 18 18 18 36 36
 85 85 17 17 17 26 26 26 26 63 63 63 63 63 63 63 63 18 18 18
 18 18 36 36 36 85 85 85 17 17 17 34 94 94 94 63 63 63 63 63
 63 63 82 18 18 18 36 36 36 36 85 85 85 85 17 17 34 95 95 95
 94 37 37 37 37 37 82 82 82 82 82 36 36 36 36 85 85 85 58 58
 85 95 95 95 95 95 95 95 37 37 82 82 82 82 82 82 82 36 36 85
 85 85 85 58 58 58 95 95 95 95 95 95 95 95 37 82 82 82 82 82
 82 82 22 22 85 85 85 85 58 58 58 95 95 95 95 95 95 95 95 95
 82 82 82 82 82 82 82 22 22 85 85 85 85 85 58 95 95 95 95 95
 95 95 95 95 95 82 82 82 82 82 82 82 82 85 85 85 85 85 85 85
 95 95 95 95 95 95 95 95 95 79 82 82 82 82 82 82 82 82 85 85
 33 33 33 33 95 95 95 95 95 19 19 19 19 19 101 101 101 101 101 82
 82 82 82 72 72 33 33 33 76 76 76 95 95 95 19 19 19 43 43 43
 101 101 101 101 101 101 82 82 72 72 33 33 33 76 76 76 76 80 80 80
 19 43 43 43 43 101 101 101 101 101 101 101 72 72 33 33 33 33 76 76
 76 76 80 80 57 57 43 43 43 43 43 101 101 101 98 98 98 27 27 27
 27 33 27 27 76 76 52 52 52 57 57 57 43 43 43 43 98 98 98 98
 98 98 27 27 27 27 27 27 27 27 52 52 52 52 57 57 57 32 32 32
 32 98 30 30 30 30 77 27 27 27 27 27 27 27 27 27 52 52 52 57
 57 32 32 32 32 32 32 30 30 30 77 77 27 27 27 27 27 27 27 27
 27 52 52 57 57 96 32 32 32 32 32 32 30 30 77 77 77 77 27 27
 27 27 27 27 27 27 96 96 96 96 96 32 32 32 32 21 21 30 77 77
 77 77 77 27 27 27 27 27 27 27 27 96 96 96 96 96 96 32 32 21
 21 21 21 77 77 77 77 77 77 27 27 27 27 27 27 96 96 96 96 96
 96 96 96 96 21 21 21 77 77 77 77 77 77 77 27 27 27 27 27 27
 96 96 96 96 96 96 96 96 96 21 21 21 77 77 77 77 77 77 77 77
 27 27 27 26 26 26 96 96 96 96 96 96 96 96 63 63 18 18 18 77
 77 77 77 77 77 27 27 26 26 26 26 26 96 96 96 96 96 63 63 63
 63 18 18 18 18 18 77 77 77 77 74 74 26 26 26 26 26 26 96 96
 96 96 63 63 63 63 18 18 18 18 18 18 18 77 77 74 74 26 26 26
 26 26 26 96 96 96 63 63 63 63 63 18 18 18 18 18 18 18 18 18
 74 74 26 26 26 26 26 26 96 96 63 63 63 63 63 63 63 18 18 18
 18 18 18 18 18 85 85 17 17 17 26 26 26 26 63 63 63 63 63 63
 63 63 18 18 18 18 18 18 18 36 85 85 85 17 17 17 26 26 95 95
 37 37 37 37 37 37 37 18 18 18 18 18 36 36 36 85 85 85 17 17
 17 95 95 95 95 95 37 37 37 37 37 82 82 82 82 82 82 22 22 22
 85 85 85 85 58 95 95 95 95 95 95 95 37 37 37 37 82 82 82 82
 82 82 22 22 22 22 85 85 85 58 95 95 95 95 95 95 95 95 95 37
 82 82 82 82 82 82 82 22 22 22 85 85 85 85 58 95 95 95 95 95
 95 95 95 95 95 82 82 82 82 82 82 82 22 22 22 85 85 85 85 58
 95 95 95 95 95 95 95 95 95 95 82 82 82 82 82 82 82 82 22 22
 85 85 85 85 95 95 95 95 95 95 19 95 95 95 95 82 82 82 82 82
 82 82 82 22 22 33 33 33 33 95 95 95 95 95 95 19 19 95 95 101
 101 101 101 101 82 82 82 82 72 72 33 33 33 33 76 76 95 95 95 19
 19 19 43 43 101 101 101 101 101 101 101 82 72 72 72 33 33 33 33 76
 76 80 80 80 80 19 19 43 43 43 101 101 101 101 101 101 101 72 72 33
 33 33 33 33 76 76 80 80 80 80 57 43 43 43 43 101 101 101 101 49
 49 49 49 33 33 33 33 33 27 76 76 80 80 80 80 57 57 43 43 43
 43 30 30 30 49 49 49 27 27 27 27 27 27 27 27 52 52 52 52 57
 57 32 32 32 32 32 30 30 30 30 30 77 27 27 27 27 27 27 27 27
 27 52 52 52 57 32 32 32 32 32 32 30 30 30 30 77 77 77 27 27
 27 27 27 27 27 27 24 52 96 96 96 32 32 32 32 32 32 30 30 77
 77 77 77 77 27 27 27 27 27 27 27 96 96 96 96 96 32 32 32 32
 32 32 77 77 77 77 77 77 77 27 27 27 27 27 27 27 96 96 96 96
 96 96 32 32 32 32 32 77 77 77 77 77 77 77 77 27 27 27 27 27
 96 96 96 96 96 96 96 96 32 32 32 21 77 77 77 77 77 77 77 77
 77 27 27 27 96 96 96 96 96 96 96 96 96 96 32 21 77 77 77 77
 77 77 77 77 77 77 27 27 74 26 96 96 96 96 96 96 96 96 96 63
 63 18 18 18 77 77 77 77 77 77 77 74 74 74 26 26 96 96 96 96
 96 96 96 63 63 63 18 18 18 18 18 77 77 77 77 74 74 74 74 26
 26 26 96 96 96 96 96 63 63 63 18 18 18 18 18 18 18 18 77 77
 74 74 74 74 26 26 26 96 96 96 96 96 63 63 63 18 18 18 18 18
 18 18 18 18 18 74 74 74 74 74 26 26 26 96 96 96 63 63 63 63
 63 18 18 18 18 18 18 18 18 18 74 74 74 17 17 26 26 26 96 96
 95 37 37 37 37 37 18 18 18 18 18 18 18 18 18 6 6 74 17 17
 17 26 95 95 95 95 37 37 37 37 37 18 18 18 18 18 18 18 22 22
 22 85 85 17 17 92 95 95 95 95 95 37 37 37 37 37 82 82 82 82
 82 82 22 22 22 22 85 85 85 58 95 95 95 95 95 95 95 37 37 37
 37 82 82 82 82 82 82 22 22 22 22 85 85 85 95 95 95 95 95 95
 95 95 95 95 37 82 82 82 82 82 82 82 22 22 22 22 85 85 85 95
 95 95 95 95 95 95 95 95 95 95 82 82 82 82 82 82 82 22 22 22
 22 85 85 85 95 95 95 95 95 95 95 95 95 95 95 82 82 82 82 82
 82 82 82 22 22 85 85 85 95 95 95 95 95 95 95 95 95 95 95 95
 82 82 82 82 82 82 82 82 22 22 33 33 33 33 95 95 95 95 95 95
 95 95 95 95 101 101 101 101 101 82 82 82 82 72 72 33 33 33 33 61
 61 95 95 95 95 95 95 95 95 101 101 101 101 101 101 101 82 82 72 72
 33 33 33 33 61 61 80 80 80 95 95 95 43 43 101 101 101 101 101 49
 49 49 49 72 33 33 33 33 33 61 61 80 80 80 84 84 84 43 43 101
 101 101 101 49 49 49 49 49 33 33 33 33 33 27 61 61 80 80 80 84
 84 32 32 32 32 101 30 30 49 49 49 49 14 14 27 70 70 70 27 27
 61 52 24 52 57 32 32 32 32 32 32 30 30 30 30 77 77 77 27 27
 27 27 27 27 27 78 24 24 24 96 32 32 32 32 32 32 30 30 30 30
 77 77 77 77 27 27 27 27 27 27 78 24 24 96 96 96 32 32 32 32
 32 30 30 30 77 77 77 77 77 27 27 27 27 27 27 78 96 96 96 96
 96 32 32 32 32 32 32 77 77 77 77 77 77 77 77 27 27 27 27 27
 78 96 96 96 96 96 96 32 32 32 32 32 77 77 77 77 77 77 77 77
 77 27 27 27 27 96 96 96 96 96 96 96 96 32 32 32 77 77 77 77
 77 77 77 77 77 77 27 27 74 74 96 96 96 96 96 96 96 96 96 96
 21 77 77 77 77 77 77 77 77 77 77 74 74 74 74 96 96 96 96 96
 96 96 96 96 96 18 18 18 18 77 77 77 77 77 77 74 74 74 74 74
 74 96 96 96 96 96 96 96 96 18 18 18 18 18 18 18 18 77 77 77
 74 74 74 74 74 74 96 96 96 96 96 96 96 63 18 18 18 18 18 18
 18 18 18 77 77 74 74 74 74 74 74 74 96 96 96 96 96 63 63 63
 18 18 18 18 18 18 18 18 18 18 74 74 74 74 74 74 74 96 96 96
 96 96 37 63 18 18 18 18 18 18 18 18 18 18 18 74 6 74 74 74
 74 74 74 95 95 95 37 37 37 37 18 18 18 18 18 18 18 18 18 18
 6 6 74 74 74 92 92 95 95 95 95 37 37 37 37 37 18 18 18 18
 18 18 18 18 22 6 6 74 74 92 92 95 95 95 95 95 95 37 37 37
 37 82 82 82 82 18 18 22 22 22 22 22 74 74 92 92 95 95 95 95
 95 95 37 37 37 37 82 82 82 82 82 82 22 22 22 22 22 85 85 95
 95 95 95 95 95 95 95 95 95 95 82 82 82 82 82 82 82 22 22 22
 22 22 85 95 95 95 95 95 95 95 95 95 95 95 95 82 82 82 82 82
 82 82 22 22 22 22 22 85 95 95 95 95 95 95 95 95 95 95 95 95
 82 82 82 82 82 82 82 22 22 22 85 85 85 95 95 95 95 95 95 95
 95 95 95 95 95 82 82 82 82 82 82 82 82 22 22 33 33 33 86 86
 86 95 95 95 95 95 95 95 95 95 101 101 101 101 82 82 82 45 45 89
 33 33 33 86 86 86 86 95 95 95 95 95 95 95 101 101 101 101 101 101
 101 45 45 45 89 33 33 33 33 61 61 61 84 84 84 84 84 84 43 101
 101 101 101 101 49 49 45 45 45 33 33 33 33 33 61 61 61 84 84 84
 84 84 84 43 101 101 101 101 49 49 49 49 14 14 33 70 70 70 70 61
 61 61 84 84 84 84 84 32 32 32 56 101 30 49 49 49 49 14 14 14
 70 70 70 78 78 78 24 24 24 84 84 32 32 32 32 32 30 30 30 30
 77 77 77 14 14 70 70 70 78 78 78 24 24 24 24 24 32 32 32 32
 32 30 30 30 77 77 77 77 77 77 27 27 27 78 78 78 24 24 24 24
 96 32 32 32 32 32 30 30 77 77 77 77 77 77 77 77 27 27 78 78
 78 78 24 24 96 96 32 32 32 32 32 32 77 77 77 77 77 77 77 77