# vtk DataFile Version 2.0
Data set from ImportExport Version 6.5.141.ec284b7a5
ASCII

DATASET RECTILINEAR_GRID
DIMENSIONS 26 26 26
X_COORDINATES 26 float
-3.000000 3.000000 9.000000 15.000000 21.000000 27.000000 33.000000 39.000000 45.000000 51.000000 57.000000 63.000000 69.000000 75.000000 81.000000 87.000000 93.000000 99.000000 105.000000 111.000000 117.000000 
123.000000 129.000000 135.000000 141.000000 147.000000 
Y_COORDINATES 26 float
-3.000000 3.000000 9.000000 15.000000 21.000000 27.000000 33.000000 39.000000 45.000000 51.000000 57.000000 63.000000 69.000000 75.000000 81.000000 87.000000 93.000000 99.000000 105.000000 111.000000 117.000000 
123.000000 129.000000 135.000000 141.000000 147.000000 
Z_COORDINATES 26 float
-3.000000 3.000000 9.000000 15.000000 21.000000 27.000000 33.000000 39.000000 45.000000 51.000000 57.000000 63.000000 69.000000 75.000000 81.000000 87.000000 93.000000 99.000000 105.000000 111.000000 117.000000 
123.000000 129.000000 135.000000 141.000000 147.000000 
CELL_DATA 15625
SCALARS FeatureIds int 1
LOOKUP_TABLE default
 10 10 10 10 10 86 86 86 86 41 41 41 92 92 92 92 92 90 90 90
 90 90 90 10 10 10 10 10 10 10 86 86 86 41 41 41 92 92 92 92
 92 92 90 90 90 90 90 90 10 10 10 10 10 10 10 68 68 68 68 41
 41 92 92 92 92 92 92 90 90 90 90 90 90 10 10 10 10 10 10 10
 68 68 68 55 55 55 55 92 92 92 92 92 92 19 19 19 19 90 10 10
 10 10 10 10 10 68 68 55 55 55 55 55 92 92 92 92 92 92 19 19
 19 19 19 10 10 10 10 10 46 46 46 46 55 55 55 55 55 92 92 92
 92 92 92 92 19 19 19 101 101 101 10 45 45 45 46 46 46 55 55 55
 55 55 84 92 92 92 92 92 92 101 101 101 101 101 101 101 45 45 45 45
 46 46 46 55 55 55 84 84 84 92 76 76 76 76 101 101 101 101 101 101
 101 45 45 45 45 46 46 46 55 84 84 84 84 84 84 76 76 76 76 101
 101 101 101 101 101 101 45 45 45 45 46 46 46 46 84 84 84 84 84 61
 76 76 76 76 101 101 101 101 101 101 26 26 26 45 11 11 11 46 12 84
 84 84 61 61 61 61 76 76 76 101 101 101 101 101 101 26 26 26 26 11
 12 12 12 12 12 12 61 61 61 61 61 61 61 76 101 101 101 101 101 101
 26 26 26 26 26 12 12 12 12 12 12 61 61 61 61 61 61 61 61 101
 101 101 51 51 26 26 26 26 26 26 12 12 12 12 12 12 61 61 61 61
 61 61 61 61 61 51 51 51 51 51 26 26 26 26 26 12 12 12 12 12
 12 61 61 61 61 61 61 61 61 61 51 51 51 51 51 51 26 26 26 26
 12 12 12 8 8 8 8 61 61 61 61 61 61 61 61 51 51 51 51 51
 51 51 26 26 93 93 93 8 8 8 8 8 50 50 50 50 50 50 50 51
 51 51 51 51 51 51 51 16 16 16 93 93 93 8 8 8 8 50 50 50
 50 50 50 50 51 51 51 51 51 51 51 51 16 16 16 93 93 93 93 8
 8 8 8 50 50 50 50 50 50 85 85 85 85 51 51 24 24 24 93 93
 93 93 93 93 93 8 8 8 50 50 50 50 50 85 85 85 85 24 24 24
 24 24 24 93 93 93 93 93 93 93 93 8 8 50 50 50 65 65 65 85
 85 24 24 24 24 24 24 24 93 93 93 93 93 93 93 93 8 8 29 50
 65 65 65 65 65 24 24 24 24 24 24 24 10 86 86 86 86 86 86 86
 86 86 86 29 29 65 65 65 65 90 24 24 24 24 24 10 10 10 10 86
 86 86 86 86 86 86 86 86 92 92 92 65 90 90 90 90 24 24 24 24
 10 10 10 10 86 86 86 86 86 86 86 86 92 92 92 92 90 90 90 90
 90 90 90 10 10 10 10 10 10 78 78 86 86 41 41 41 92 92 92 92
 92 92 92 90 90 90 90 90 10 10 10 10 10 10 10 68 68 68 41 41
 41 92 92 92 92 92 92 92 90 90 90 90 90 10 10 10 10 10 10 10
 68 68 68 68 41 41 92 92 92 92 92 92 92 92 90 90 90 90 10 10
 10 10 10 10 10 68 68 68 68 55 55 55 92 92 92 92 92 92 92 92
 19 19 90 10 10 10 10 10 10 10 68 68 68 55 55 55 55 92 92 92
 92 92 92 92 92 19 19 101 101 10 10 10 10 46 46 68 68 55 55 55
 55 55 92 92 92 92 92 92 92 92 101 101 101 101 101 101 45 45 45 46
 46 46 55 55 55 55 55 84 92 92 92 92 92 92 101 101 101 101 101 101
 101 45 45 45 45 45 46 55 55 55 55 55 84 92 92 92 76 76 76 101
 101 101 101 101 101 101 101 45 45 45 45 46 55 55 55 55 55 84 84 92
 76 76 76 76 101 101 101 101 101 101 101 101 45 45 45 45 46 46 55 55
 84 84 84 61 61 76 76 76 76 101 101 101 101 101 101 101 27 27 27 27
 27 11 46 12 55 84 61 61 61 61 61 76 76 76 101 101 101 101 101 101
 26 26 27 27 27 27 12 12 12 12 61 61 61 61 61 61 61 61 61 101
 101 101 101 101 101 26 26 26 27 27 27 12 12 12 12 61 61 61 61 61
 61 61 61 61 101 101 101 51 51 26 26 26 26 26 27 27 12 12 12 12
 61 61 61 61 61 61 61 61 61 61 51 51 51 51 51 26 26 26 26 26
 12 12 8 8 8 8 61 61 61 61 61 61 61 61 61 51 51 51 51 51
 51 26 26 26 26 93 12 8 8 8 8 8 61 61 61 61 61 61 61 61
 51 51 51 51 51 51 51 26 26 93 93 93 8 8 8 8 8 50 50 50
 50 50 50 61 85 51 51 51 51 51 51 51 16 16 16 93 93 93 8 8
 8 8 50 50 50 50 50 50 50 85 85 85 51 51 51 51 51 16 16 16
 16 93 93 93 8 8 8 50 50 50 50 50 50 85 85 85 85 85 85 51
 24 24 16 16 16 93 93 93 93 93 8 8 8 50 50 50 50 50 85 85
 85 85 85 24 24 24 24 24 16 93 93 93 93 93 93 93 8 8 29 50
 29 65 65 85 85 85 85 24 24 24 24 24 24 78 93 93 93 93 93 93
 93 8 29 29 29 29 65 65 65 85 85 24 24 24 24 24 24 24 78 86
 86 86 86 86 86 86 86 29 29 29 29 65 65 65 85 24 24 24 24 24
 10 10 10 78 78 86 86 86 86 86 86 86 92 92 92 92 92 60 90 90
 24 24 24 24 24 10 10 10 78 78 78 86 86 86 86 86 86 92 92 92
 92 92 90 90 90 90 90 90 10 10 10 10 10 78 78 78 68 68 68 41
 41 92 92 92 92 92 92 92 92 90 90 90 10 10 10 10 10 10 10 78
 78 68 68 68 41 41 92 92 92 92 92 92 92 92 92 90 90 10 10 10
 10 10 10 10 10 68 68 68 68 68 41 92 92 92 92 92 92 92 92 92
 90 90 10 10 10 10 10 10 10 68 68 68 68 68 68 55 92 92 92 92
 92 92 92 92 92 19 19 10 10 10 10 10 10 10 68 68 68 68 68 55
 55 55 92 92 92 92 92 92 92 92 19 101 101 101 10 10 10 10 10 68
 68 68 55 55 55 55 55 92 92 92 92 92 92 92 92 101 101 101 101 101
 101 101 45 45 45 68 68 55 55 55 55 55 92 92 92 92 92 92 92 101
 101 101 101 101 101 101 101 45 45 45 45 55 55 55 55 55 55 92 92 92
 92 92 76 101 101 101 101 101 101 101 101 101 45 45 45 45 55 55 55 55
 55 55 92 92 92 76 76 76 76 101 101 101 101 101 101 101 101 27 27 27
 27 46 46 55 55 55 61 61 61 61 76 76 76 76 101 101 101 101 101 101
 101 27 27 27 27 27 27 27 57 55 61 61 61 61 61 61 76 76 76 101
 101 101 101 101 101 26 27 27 27 27 27 27 57 57 57 61 61 61 61 61
 61 61 61 61 101 101 101 101 101 101 26 26 27 27 27 27 27 57 57 12
 61 61 61 61 61 61 61 61 61 101 101 101 101 101 26 26 26 26 27 27
 27 27 12 12 12 61 61 61 61 61 61 61 61 61 61 101 51 51 51 51
 26 26 26 26 27 27 54 54 54 54 54 61 61 61 61 61 61 61 61 61
 51 51 51 51 51 51 26 26 26 27 54 54 54 8 8 54 54 61 61 61
 61 61 61 61 61 51 51 51 51 51 51 51 26 16 16 93 54 54 8 8
 8 54 54 61 50 50 50 61 61 85 85 51 51 51 51 51 51 16 16 16
 16 93 93 8 8 8 8 54 50 50 50 50 50 85 85 85 85 85 51 51
 85 85 16 16 16 16 93 93 93 8 8 54 54 50 50 50 50 50 85 85
 85 85 85 85 85 24 24 16 16 16 16 93 93 93 93 8 54 54 29 50
 50 50 50 85 85 85 85 85 85 24 24 24 24 16 16 93 93 93 93 93
 93 54 29 29 29 29 29 29 85 85 85 85 85 24 24 24 24 24 78 16
 93 93 93 93 93 93 54 29 29 29 29 29 65 65 85 85 85 24 24 24
 24 24 78 78 78 78 93 93 93 93 93 29 29 29 29 29 60 60 60 85
 85 24 24 24 24 10 10 78 78 78 78 78 86 86 86 86 29 29 29 29
 29 60 60 60 60 85 24 24 24 24 10 10 78 78 78 78 78 86 86 86
 86 92 92 92 92 92 92 60 60 90 90 90 90 10 10 10 10 78 78 78
 78 78 39 39 39 41 92 92 92 92 92 92 92 92 92 92 90 10 10 10
 10 10 10 78 78 78 68 68 68 68 68 92 92 92 92 92 92 92 92 92
 92 90 10 10 10 10 10 10 10 78 68 68 68 68 68 68 92 92 92 92
 92 92 92 92 92 92 90 10 10 10 10 10 10 10 68 68 68 68 68 68
 68 92 92 92 92 92 92 92 92 92 92 92 10 10 10 10 10 10 10 68
 68 68 68 68 68 55 92 92 92 92 92 92 92 92 92 92 101 101 101 10
 10 10 10 10 68 68 68 68 55 55 55 55 92 92 92 92 92 92 92 92
 101 101 101 101 101 101 101 45 45 68 68 68 30 55 55 55 55 92 92 92
 92 92 92 92 101 101 101 101 101 101 101 101 45 45 45 68 30 55 55 55
 55 55 92 92 92 92 92 92 101 101 101 101 101 101 101 101 101 27 27 27
 27 27 55 55 55 55 55 92 92 92 76 76 76 101 101 101 101 101 101 101
 83 83 27 27 27 27 27 46 55 55 55 61 61 61 61 61 76 76 101 101
 101 101 101 101 101 27 27 27 27 27 27 27 57 57 57 57 61 61 61 61
 61 61 61 101 101 101 101 101 101 101 27 27 27 27 27 27 27 57 57 57
 57 61 61 61 61 61 61 61 61 101 101 101 101 101 101 26 27 27 27 27
 27 27 57 57 57 57 61 61 61 61 61 61 61 61 101 101 101 101 101 101
 26 26 27 27 27 27 27 57 57 57 57 61 61 61 61 61 61 61 61 61
 101 101 51 51 51 51 26 26 27 27 54 54 54 54 54 54 54 61 61 61
 61 61 61 61 61 51 51 51 51 51 51 26 26 27 79 54 54 54 54 54
 54 54 61 61 61 61 61 61 61 61 51 51 51 51 51 51 51 26 79 79
 79 54 54 54 54 54 54 54 61 61 61 61 61 61 85 85 85 51 51 51
 51 51 16 16 16 79 54 54 54 54 54 54 54 50 50 50 50 61 85 85
 85 85 85 85 51 85 85 16 16 16 16 93 93 54 54 54 54 54 50 50
 50 50 50 85 85 85 85 85 85 85 85 85 16 16 16 16 93 93 93 54
 54 54 54 29 29 29 29 29 85 85 85 85 85 85 85 24 24 16 16 16
 93 93 93 93 54 54 54 29 29 29 29 29 29 85 85 85 85 85 85 85
 24 24 78 78 93 93 93 93 93 93 54 54 29 29 29 29 29 29 85 85
 85 85 85 24 24 24 78 78 78 78 78 78 93 93 93 54 29 29 29 29
 29 29 60 60 85 85 85 24 24 24 10 78 78 78 78 78 78 39 39 39
 39 29 29 29 29 29 60 60 60 60 85 85 24 24 24 10 10 78 78 78
 78 78 39 39 39 39 92 92 92 92 92 60 60 60 60 85 85 85 24 10
 10 10 78 78 78 78 39 39 39 39 77 77 92 92 92 92 92 92 92 92
 92 74 74 10 10 10 10 78 78 78 39 39 39 39 39 77 77 92 92 92
 92 92 92 92 92 92 74 74 10 10 10 10 10 78 78 68 68 68 68 68
 77 77 92 92 92 92 92 92 92 92 92 74 74 10 10 10 10 10 10 68
 68 68 68 68 68 68 92 92 92 92 92 92 92 92 92 92 92 74 10 10
 10 10 10 68 68 68 68 68 68 68 68 92 92 92 92 92 92 92 92 92
 92 101 101 101 10 10 10 34 34 68 30 30 30 30 30 55 92 92 92 92
 92 92 92 92 92 101 101 101 101 101 83 83 83 34 30 30 30 30 30 30
 55 55 92 92 92 92 92 92 92 101 101 101 101 101 101 83 83 83 34 34
 30 30 30 30 30 55 55 92 92 92 92 92 92 101 101 101 101 101 101 101
 83 83 83 34 34 27 30 30 30 30 55 55 92 92 92 92 76 101 101 101
 101 101 101 101 101 83 83 83 27 27 27 27 30 30 57 57 61 61 61 61
 61 61 101 101 101 101 101 101 101 101 83 83 27 27 27 27 27 57 57 57
 57 61 61 61 61 61 61 61 101 101 101 101 101 101 101 23 23 27 27 27
 27 27 57 57 57 57 61 61 61 61 61 61 61 61 101 101 101 101 101 101
 23 27 27 27 27 27 27 57 57 57 57 61 61 61 61 61 61 61 61 101
 101 101 101 101 101 26 27 27 27 27 27 57 57 57 57 57 57 61 61 61
 61 61 61 61 61 101 101 101 101 51 51 26 26 27 27 54 54 54 57 57
 57 54 61 61 61 61 61 61 61 61 101 51 51 51 51 51 26 26 79 79
 79 54 54 54 54 54 54 54 61 61 61 61 61 61 61 85 51 51 51 51
 51 51 79 79 79 79 79 54 54 54 54 54 54 61 61 61 61 61 61 85
 85 85 85 51 51 51 51 79 79 79 79 79 54 54 54 54 54 54 54 61
 61 61 61 85 85 85 85 85 85 85 85 85 79 79 79 79 54 54 54 54
 54 54 54 54 29 29 29 85 85 85 85 85 85 85 85 85 85 16 16 79
 79 54 54 54 54 54 54 54 29 29 29 29 29 85 85 85 85 85 85 85
 85 85 85 16 79 93 54 54 54 54 54 54 29 29 29 29 29 29 85 85
 85 85 85 85 85 24 24 78 78 78 93 54 54 54 54 54 54 29 29 29
 29 29 29 29 85 85 85 85 85 85 24 78 78 78 78 78 78 93 54 54
 54 54 29 29 29 29 29 29 29 85 85 85 85 85 85 10 78 78 78 78
 78 78 39 39 39 39 29 29 29 29 29 29 60 60 60 85 85 85 85 24
 10 78 78 78 78 78 78 39 39 39 39 92 92 92 92 29 60 60 60 60
 85 85 85 85 10 5 5 78 78 78 78 39 39 39 39 77 77 77 92 92
 92 92 92 92 92 92 74 74 74 5 5 5 5 78 78 39 39 39 39 39
 77 77 77 92 92 92 92 92 92 92 92 74 74 74 5 5 5 5 78 39
 39 39 39 39 39 77 77 92 92 92 92 92 92 92 92 92 74 74 74 5
 5 5 5 5 68 68 68 68 68 68 68 92 92 92 92 92 92 92 92 92
 92 74 74 74 74 10 10 34 34 68 30 30 30 30 30 68 92 92 92 92
 92 92 92 92 92 92 101 101 74 74 34 34 34 34 34 30 30 30 30 30
 55 92 92 92 92 92 92 92 92 92 101 101 101 101 101 34 34 34 34 34
 30 30 30 30 30 55 92 92 92 92 92 92 92 92 101 101 101 101 101 101
 83 83 34 34 34 30 30 30 30 30 55 92 92 92 92 92 92 92 101 101
 101 101 101 101 101 83 83 83 34 34 34 30 30 30 30 97 97 92 92 92
 92 92 101 101 101 101 101 101 101 101 83 83 83 83 34 34 34 30 57 57
 57 61 61 61 61 61 61 101 101 101 101 101 101 101 101 83 83 83 27 27
 27 27 57 57 57 57 61 61 61 61 61 61 61 101 101 101 101 101 101 101
 23 23 23 27 27 27 27 57 57 57 57 61 61 61 61 61 61 61 101 101
 101 101 101 101 101 23 23 27 27 27 27 57 57 57 57 57 57 61 61 61
 61 61 61 61 101 101 101 101 101 101 23 27 27 27 27 27 57 57 57 57
 57 57 61 61 61 61 61 61 61 61 101 101 101 101 101 21 27 27 27 79
 54 54 54 57 57 57 54 61 61 61 61 61 61 61 61 101 101 51 51 51
 21 21 79 79 79 79 54 54 54 54 54 54 54 61 61 61 61 61 61 61
 85 85 51 51 51 21 21 79 79 79 79 79 54 54 54 54 54 54 54 61
 61 61 61 61 67 85 85 85 51 51 21 79 79 79 79 79 79 54 54 54
 54 54 54 54 61 61 61 67 67 85 85 85 85 85 85 85 79 79 79 79
 79 79 54 54 54 54 54 54 54 29 29 29 67 67 85 85 85 85 85 85
 85 85 79 79 79 79 54 54 54 54 54 54 54 29 29 29 29 29 67 85
 85 85 85 85 85 85 85 78 79 79 79 54 54 54 54 54 54 29 29 29
 29 29 29 29 85 85 85 85 85 85 24 78 78 78 78 78 54 54 54 54
 54 54 29 29 29 29 29 29 29 85 85 85 85 85 85 24 78 78 78 78
 78 78 54 54 54 54 54 29 29 29 29 29 29 29 85 85 85 85 85 85
 5 78 78 78 78 78 78 39 39 39 39 29 29 29 29 29 29 29 29 85
 85 85 85 85 85 5 5 78 78 78 78 39 39 39 39 39 29 29 29 29
 29 29 29 29 3 3 85 74 74 5 5 5 5 5 78 39 39 39 39 39
 77 77 77 92 92 92 92 3 92 92 7 74 74 74 5 5 5 5 5 78
 39 39 39 39 39 77 77 77 92 92 92 92 92 92 92 74 74 74 74 5
 5 5 5 5 39 39 39 39 39 39 77 77 92 92 92 92 92 92 92 92
 7 74 74 74 5 5 5 5 5 39 39 39 39 39 39 77 92 92 92 92
 92 92 92 92 92 7 7 74 74 74 5 5 5 34 34 30 30 30 30 30
 30 92 92 92 92 92 92 92 92 92 7 7 7 74 74 34 34 34 34 34
 30 30 30 30 30 30 92 92 92 92 92 92 92 92 92 7 101 101 7 7
 34 34 34 34 34 34 30 30 30 30 30 92 92 92 92 92 92 92 92 101
 101 101 101 101 101 83 34 34 34 34 34 30 30 30 30 30 56 56 92 92
 92 92 92 101 101 101 101 101 101 101 83 83 34 34 34 34 30 30 30 30
 97 97 56 56 56 92 92 101 101 101 101 101 101 101 101 83 83 83 34 34
 34 34 98 98 57 97 97 97 61 61 92 61 101 101 101 101 101 101 101 101
 83 83 83 83 27 34 34 57 57 57 57 61 61 61 61 61 61 61 101 101
 101 101 101 101 101 23 23 23 27 27 27 27 57 57 57 57 61 61 61 61
 61 61 61 101 101 101 101 101 101 101 23 23 23 27 27 27 57 57 57 57
 57 57 61 61 61 61 61 61 61 101 101 101 101 101 101 21 23 27 27 27
 57 57 57 57 57 57 57 61 61 61 61 61 61 61 25 25 21 21 21 21
 21 21 27 27 79 54 54 54 57 57 57 54 61 61 61 61 61 61 25 25
 25 21 21 21 21 21 21 79 79 79 79 54 54 54 54 54 54 54 61 61
 61 61 61 25 25 25 21 21 21 21 21 21 79 79 79 79 54 54 54 54
 54 54 54 54 61 61 61 67 67 67 67 67 21 21 21 21 21 79 79 79
 79 79 54 54 54 54 54 54 54 61 61 67 67 67 67 67 67 21 21 21
 21 21 79 79 79 79 79 54 54 54 54 54 54 54 29 29 29 67 67 67
 67 67 67 21 21 21 21 79 79 79 79 54 54 54 54 54 89 89 29 29
 29 29 67 67 67 67 67 85 85 85 85 85 78 71 71 71 54 54 54 54
 54 89 89 29 29 29 29 29 67 67 67 67 85 85 85 24 78 78 71 71
 71 71 54 54 54 54 89 29 29 29 29 29 29 67 67 67 67 85 85 85
 5 78 78 78 71 71 71 54 54 54 54 89 29 29 29 29 29 3 3 67
 67 67 85 85 85 5 5 78 78 78 78 39 39 39 39 39 29 29 29 29
 29 3 3 3 3 67 74 74 74 5 5 5 5 78 78 78 39 39 39 39
 39 29 29 29 29 29 3 3 3 3 3 74 74 74 5 5 5 5 5 78
 39 39 39 39 39 35 35 77 92 92 92 3 3 3 7 7 7 74 74 74
 5 5 5 5 39 39 39 39 39 39 77 35 92 92 92 92 92 92 7 7
 7 7 74 74 74 5 5 5 5 39 39 39 39 39 39 77 77 92 92 92
 92 92 92 7 7 7 7 74 74 74 5 5 5 5 39 39 39 39 39 39
 77 92 92 92 92 92 92 92 7 7 7 7 7 74 74 5 34 34 34 34
 30 30 30 30 30 30 92 92 92 92 92 92 92 7 7 7 7 7 7 7
 34 34 34 34 34 30 30 30 30 30 30 56 56 92 38 38 38 92 92 7
 7 7 7 7 7 34 34 34 34 34 34 30 30 30 30 30 56 56 56 56
 38 38 92 92 7 7 7 7 7 7 34 34 34 34 34 34 98 98 98 98
 97 56 56 56 56 56 38 92 101 101 101 101 101 95 95 34 34 34 34 34
 34 98 98 98 98 97 97 56 56 56 56 38 101 101 101 101 101 101 95 95
 83 83 34 34 34 34 98 98 98 97 97 97 97 56 56 56 38 101 101 101
 101 101 101 95 95 83 83 83 34 34 34 98 98 98 97 97 97 97 61 61
 61 61 61 101 101 101 101 101 101 101 23 23 23 34 34 27 98 57 57 57
 57 61 61 61 61 61 61 61 101 101 101 101 101 101 101 21 23 23 27 27
 27 57 57 57 57 57 57 61 61 61 61 61 61 25 25 25 21 21 21 21
 21 21 21 27 27 57 57 57 57 57 57 57 61 61 61 61 61 25 25 25
 25 21 21 21 21 21 21 21 27 79 54 54 54 54 57 57 54 61 61 61
 61 61 25 25 25 25 21 21 21 21 21 21 21 79 79 79 54 54 54 54
 54 54 54 61 61 61 61 25 25 25 25 21 21 21 21 21 21 21 79 79
 79 54 54 54 54 54 54 54 54 61 61 67 67 25 25 25 21 21 21 21
 21 21 21 79 79 79 54 54 54 54 54 54 54 54 54 67 67 67 67 67
 67 67 21 21 21 21 21 79 79 79 79 54 54 54 54 54 89 89 54 29
 29 67 67 67 67 67 67 67 21 21 21 21 79 79 79 54 54 54 54 54
 89 89 89 29 29 29 67 67 67 67 67 67 67 67 21 21 21 71 71 71
 71 71 54 54 54 89 89 89 29 29 29 29 67 67 67 67 67 67 67 67
 21 71 71 71 71 71 71 54 54 54 89 89 89 29 29 29 29 29 67 67
 67 67 67 67 67 5 5 78 71 71 71 71 54 54 54 89 89 29 29 29
 29 3 3 3 67 67 67 67 67 67 5 5 5 78 78 78 39 39 39 39
 39 29 29 29 29 29 3 3 3 3 67 67 67 74 5 5 5 5 5 78
 78 39 39 39 39 39 35 29 29 29 3 3 3 3 3 67 74 74 74 5
 5 5 5 5 5 39 39 39 39 17 35 35 35 92 92 9 3 3 3 7
 7 7 7 74 74 5 5 5 5 39 39 39 39 17 17 17 35 35 92 92
 92 92 7 7 7 7 7 7 74 74 5 5 5 5 5 39 39 39 17 17
 17 35 92 38 38 38 38 38 7 7 7 7 7 74 74 5 5 5 5 5
 39 39 39 39 17 17 92 92 38 38 38 38 38 7 7 7 7 7 7 7
 5 5 34 34 34 34 98 98 98 98 98 56 38 38 38 38 38 38 7 7
 7 7 7 7 7 5 34 34 34 34 34 98 98 98 98 98 56 56 56 38
 38 38 38 7 7 7 7 7 7 7 34 34 34 34 34 34 98 98 98 98
 98 56 56 56 56 38 38 38 7 7 7 7 7 7 7 34 34 34 34 34
 34 98 98 98 98 98 56 56 56 56 56 38 38 69 7 7 7 7 95 95
 95 34 34 34 34 34 98 98 98 98 97 97 56 56 56 56 38 69 69 69
 69 95 95 95 95 95 34 34 34 34 98 98 98 98 98 97 97 97 56 56
 56 38 69 69 69 69 95 95 95 95 95 83 83 34 34 98 98 98 98 98
 97 97 97 97 56 61 61 69 69 69 69 95 95 95 95 21 21 23 34 34
 98 98 98 98 57 57 97 61 61 61 61 61 25 69 101 101 101 95 95 95
 21 21 21 21 27 98 98 57 57 57 57 57 61 61 61 61 25 25 25 25
 25 21 21 21 21 21 21 21 21 21 57 57 57 57 57 57 57 61 61 31
 61 25 25 25 25 25 21 21 21 21 21 21 21 21 79 54 54 54 54 54
 54 54 61 31 31 31 25 25 25 25 25 21 21 21 21 21 21 21 21 79
 22 54 54 54 54 54 54 54 31 31 31 25 25 25 25 25 21 21 21 21
 21 21 21 79 79 22 22 22 54 54 54 54 54 54 31 31 67 25 25 25
 25 21 21 21 21 21 21 21 79 79 22 22 22 54 54 54 54 54 54 31
 67 67 67 67 67 67 67 21 21 21 21 21 21 79 79 22 54 54 54 54
 54 89 89 89 29 67 67 67 67 67 67 67 67 21 21 21 21 42 42 79
 54 54 54 54 54 89 89 89 89 29 67 67 67 67 67 67 67 67 67 21
 21 42 42 42 71 71 71 54 54 54 89 89 89 29 29 29 67 67 67 67
 67 67 67 67 21 42 42 42 42 71 71 71 54 54 54 89 89 89 29 29
 29 67 67 67 67 67 67 67 67 67 42 42 42 42 42 71 71 42 48 48
 89 89 29 29 29 29 3 3 67 67 67 67 67 67 67 5 5 42 42 42
 42 42 39 48 48 35 35 29 29 29 3 3 3 3 67 67 67 67 74 5
 5 5 5 42 42 42 39 39 39 39 35 35 35 29 29 3 3 3 3 3
 7 7 7 74 5 5 5 5 42 42 42 42 42 17 17 17 35 35 9 9
 9 9 7 7 7 7 7 7 7 7 5 5 5 5 42 42 42 39 17 17
 17 35 35 9 9 9 9 7 7 7 7 7 7 7 7 5 5 5 5 5
 42 39 39 17 17 17 35 92 38 38 38 38 38 7 7 7 7 7 7 7
 7 5 5 5 5 98 98 98 98 17 17 38 38 38 38 38 38 38 7 7
 7 7 7 7 7 7 5 5 34 34 98 98 98 98 98 98 56 38 38 38
 38 38 38 7 7 7 7 7 7 7 7 34 34 34 34 98 98 98 98 98
 98 56 56 38 38 38 38 38 7 7 7 7 7 7 7 7 34 34 34 34
 98 98 98 98 98 98 56 56 56 56 38 38 38 7 7 7 7 7 7 7
 34 34 34 34 34 98 98 98 98 98 98 56 56 56 56 56 38 38 7 7
 7 7 7 95 95 95 34 34 34 34 98 98 98 98 98 97 97 56 56 56
 56 38 38 69 69 69 95 95 95 95 95 34 34 34 98 98 98 98 98 98
 97 97 97 56 56 56 38 38 69 69 69 95 95 95 95 95 95 34 34 98
 98 98 98 98 98 97 97 97 97 56 56 38 69 69 69 69 96 95 95 95
 95 95 34 34 98 98 98 98 98 98 97 97 97 97 31 61 31 25 69 96
 96 96 96 95 95 21 21 21 21 98 98 98 98 98 98 97 97 97 31 31
 31 31 25 25 25 25 96 21 21 21 21 21 21 21 58 58 98 57 57 57
 57 57 31 31 31 31 31 25 25 25 25 21 21 21 21 21 21 21 21 22
 22 22 22 54 54 54 54 31 31 31 31 31 25 25 25 25 21 21 21 21
 21 21 21 21 22 22 22 22 54 54 54 54 31 31 31 31 31 25 25 25
 25 21 21 21 21 21 21 21 21 22 22 22 22 22 54 54 54 54 31 31
 31 31 25 25 25 25 21 21 21 21 21 21 21 21 22 22 22 22 22 54
 54 54 54 31 31 31 67 67 67 67 67 67 21 21 21 21 21 21 42 22
 22 22 22 54 54 54 54 89 53 31 67 67 67 67 67 67 67 67 21 21
 21 21 42 42 42 42 54 54 54 54 54 89 89 89 29 67 67 67 67 67
 67 67 67 67 21 42 42 42 42 42 42 42 54 54 54 54 89 89 29 29
 67 67 67 67 67 67 67 67 67 21 42 42 42 42 42 42 42 42 48 48
 48 48 89 29 29 67 67 67 67 67 67 67 67 67 67 42 42 42 42 42
 42 42 42 48 48 48 48 29 29 29 67 67 67 67 67 67 67 67 67 67
 42 42 42 42 42 42 42 42 48 48 48 48 48 29 29 3 3 3 67 67
 67 67 67 7 7 42 42 42 42 42 42 42 42 48 48 48 35 35 35 29
 3 3 3 3 7 7 7 7 7 7 42 42 42 42 42 42 42 42 48 49
 48 35 35 9 9 9 9 7 7 7 7 7 7 7 7 7 42 42 42 42
 42 42 42 17 17 49 49 49 9 9 9 9 7 7 7 7 7 7 7 7
 7 5 5 42 42 42 42 98 17 17 49 49 38 38 9 9 9 38 7 7
 7 7 7 7 7 7 5 5 5 98 98 98 98 98 98 98 38 38 38 38
 38 38 38 7 7 7 7 7 7 7 7 7 5 98 98 98 98 98 98 98
 98 98 38 38 38 38 38 38 7 7 7 7 7 7 7 7 7 34 98 98
 98 98 98 98 98 98 56 38 38 38 38 38 38 7 7 7 7 7 7 7
 7 34 34 98 98 98 98 98 98 98 98 56 56 56 38 38 38 38 7 7
 7 7 7 7 7 7 34 34 98 98 98 98 98 98 98 98 56 56 56 56
 38 38 38 38 7 7 7 7 7 7 95 34 34 98 98 98 98 98 98 98
 97 97 56 56 56 38 38 38 69 69 69 7 95 95 95 95 95 34 98 98
 98 98 98 98 98 97 97 97 56 56 56 38 38 69 69 69 96 95 95 95
 95 95 34 34 98 98 98 98 98 98 97 97 97 97 56 56 38 69 69 69
 96 96 96 95 95 21 95 34 34 98 98 98 98 98 98 97 97 97 97 31
 31 31 69 69 96 96 96 96 95 95 21 21 21 21 98 98 98 98 98 98
 97 97 97 31 31 31 31 25 25 25 96 96 96 21 21 21 21 21 21 58
 58 58 98 98 98 57 57 31 31 31 31 31 25 25 25 25 21 21 21 21
 21 21 21 21 22 22 22 22 22 54 53 53 31 31 31 31 31 25 25 25
 25 21 21 21 21 21 21 21 21 22 22 22 22 22 54 53 53 31 31 31
 31 31 25 25 25 25 21 21 21 21 21 21 21 21 22 22 22 22 22 53
 53 53 53 31 31 31 31 25 25 25 25 25 21 21 21 21 21 21 21 22
 22 22 22 22 53 53 53 53 31 31 31 31 67 67 67 67 67 21 21 21
 21 21 42 42 22 22 22 22 22 54 53 53 53 53 31 31 67 67 67 67
 67 67 67 21 21 21 42 42 42 42 42 42 54 54 54 54 53 53 53 31
 67 67 67 67 67 67 67 67 67 21 42 42 42 42 42 42 42 42 48 54
 48 89 89 6 6 67 67 67 67 67 67 67 67 67 67 42 42 42 42 42
 42 42 42 48 48 48 48 48 6 6 6 67 67 67 67 67 67 67 67 67
 42 42 42 42 42 42 42 42 48 48 48 48 48 6 6 6 67 67 67 67
 67 67 67 67 67 42 42 42 42 42 42 42 48 48 48 48 48 48 48 6
 6 67 67 67 67 67 67 7 7 7 42 42 42 42 42 42 42 48 48 48
 48 48 48 9 9 9 9 3 7 7 7 7 7 7 7 42 42 42 42 42
 42 42 42 49 49 49 49 9 9 9 9 9 9 7 7 7 7 7 7 7
 7 42 42 42 42 42 42 42 49 49 49 49 9 9 9 9 9 9 7 7
 7 7 7 7 7 7 42 42 42 42 42 42 49 49 49 49 49 9 9 9
 9 9 7 7 7 7 7 7 7 7 7 7 42 42 98 98 98 98 98 98
 49 38 38 38 38 38 38 38 7 7 7 7 7 7 7 7 7 98 98 98
 98 98 98 98 98 98 98 38 38 38 38 38 38 7 7 7 7 7 7 7
 7 7 98 98 98 98 98 98 98 98 98 98 38 38 38 38 38 38 7 7
 7 7 7 7 7 7 7 98 98 98 98 98 98 98 98 98 98 38 38 38
 38 38 38 38 7 7 7 7 7 7 7 7 98 98 98 98 98 98 98 98
 98 98 38 38 38 38 38 38 38 7 7 7 7 7 7 95 34 98 98 98
 98 98 98 98 98 98 97 56 56 38 38 38 38 38 7 7 7 7 95 95
 95 95 98 98 98 98 98 98 98 98 98 97 97 56 38 38 38 38 69 96
 96 96 96 95 95 95 95 98 98 98 98 98 98 98 98 98 97 97 97 38
 38 38 69 69 96 96 96 96 95 95 21 95 32 98 98 98 98 98 98 98
 98 97 97 97 31 31 31 31 96 96 96 96 96 96 95 21 21 21 58 58
 58 98 98 98 98 98 97 97 31 31 31 31 31 25 96 96 96 96 21 21
 21 21 21 58 58 58 58 98 98 53 53 53 53 31 31 31 31 31 25 25
 96 96 21 21 21 21 21 21 58 58 58 58 22 53 53 53 53 53 31 31
 31 31 31 25 25 25 21 21 21 21 21 21 21 21 22 22 22 22 53 53
 53 53 53 31 31 31 31 31 25 25 25 21 21 21 21 21 21 21 21 22
 22 22 22 53 53 53 53 53 31 31 31 31 31 25 25 25 25 21 21 21
 21 21 21 42 22 22 22 22 22 53 53 53 53 53 31 31 31 67 67 67
 67 67 21 21 21 21 21 42 42 42 22 22 22 22 53 53 53 53 53 53
 31 67 67 67 67 67 67 67 21 21 42 42 42 42 42 42 42 42 53 53
 53 53 53 53 53 67 67 67 67 67 67 67 67 67 21 42 42 42 42 42
 42 42 42 42 48 53 53 53 53 6 6 67 67 67 67 67 67 67 67 67
 42 42 42 42 42 42 42 42 48 48 48 48 81 6 6 6 6 67 67 67
 67 67 67 67 42 42 42 42 42 42 42 42 42 48 48 48 48 48 6 6
 6 67 67 67 67 67 67 67 67 42 42 42 42 42 42 42 42 48 48 48
 48 48 48 81 6 6 67 67 67 67 67 7 7 7 7 42 42 42 42 42
 42 42 42 48 48 48 48 48 9 9 9 9 67 7 7 7 7 7 7 7
 42 42 42 42 42 42 42 42 48 48 48 48 9 9 9 9 9 7 7 7
 7 7 7 7 7 7 42 42 42 42 42 42 42 49 49 49 49 9 9 9
 9 9 7 7 7 7 7 7 7 7 7 42 42 42 42 42 42 42 49 49
 49 49 38 38 9 9 9 7 7 7 7 7 7 7 7 7 7 42 42 98
 98 98 98 98 98 98 38 38 38 38 38 38 38 7 7 7 7 7 7 7
 7 7 98 98 98 98 98 98 98 98 98 98 38 38 38 38 38 38 7 7
 7 7 7 7 7 7 7 98 98 98 98 98 98 98 98 98 98 38 38 38
 38 38 38 7 7 7 7 7 7 7 7 7 98 98 98 98 98 98 98 98
 98 98 38 38 38 38 38 38 38 7 7 7 7 7 7 7 7 98 98 98
 98 98 98 98 98 98 98 38 38 38 38 38 38 38 7 7 7 7 7 7
 7 98 98 98 98 98 98 98 98 98 98 98 38 38 38 38 38 38 38 7
 7 7 7 7 7 32 32 98 98 98 98 98 36 98 98 98 98 97 38 38
 38 38 38 1 96 96 96 96 95 95 32 32 32 98 98 98 98 36 98 98
 98 97 97 97 38 38 100 1 96 96 96 96 96 32 32 32 32 32 32 98
 98 98 98 98 98 98 97 97 31 31 31 31 1 96 96 96 96 96 96 32
 32 32 32 32 98 98 98 98 98 98 53 53 53 31 31 31 31 31 96 96
 96 96 96 21 21 32 32 32 32 58 58 58 43 43 53 53 53 53 31 31
 31 31 31 25 96 96 96 21 21 21 21 32 32 32 58 58 58 53 53 53
 53 53 53 31 31 31 31 31 25 25 25 21 21 21 21 21 21 32 32 22
 22 22 53 53 53 53 53 53 31 31 31 31 31 25 25 25 21 21 21 21
 21 21 42 22 22 22 22 53 53 53 53 53 53 53 31 31 31 31 25 25
 25 67 21 21 21 21 21 42 42 42 22 22 22 22 53 53 53 53 53 53
 31 31 31 67 67 67 67 67 21 21 21 42 42 42 42 42 22 22 53 53
 53 53 53 53 53 53 67 67 67 67 67 67 67 21 21 42 42 42 42 42
 42 42 42 53 53 53 53 53 53 53 53 67 67 67 67 67 67 67 67 21
 42 42 42 42 42 42 42 42 42 53 53 53 53 53 6 6 67 67 67 67
 67 67 67 67 42 42 42 42 42 42 42 42 42 48 48 48 81 81 81 6
 6 67 67 67 67 67 67 67 67 42 42 42 42 42 42 42 42 42 48 48
 48 81 81 81 6 6 67 67 67 67 67 67 67 42 42 42 42 42 42 42
 42 42 42 48 48 48 48 81 81 81 6 9 67 67 67 7 7 7 7 42
 42 42 42 42 42 42 42 42 48 48 48 48 81 81 9 9 9 9 7 7
 7 7 7 7 42 42 42 42 42 42 42 42 42 48 81 81 81 81 81 9
 9 9 7 7 7 7 7 7 7 7 42 42 42 42 42 52 52 52 49 49
 49 81 81 9 9 9 9 7 7 7 7 7 7 7 7 7 42 42 42 52
 52 52 52 49 49 49 81 38 38 38 38 38 7 7 7 7 7 7 7 7
 7 42 42 42 52 52 98 98 98 98 98 38 38 38 38 38 38 38 7 7
 7 7 7 7 7 7 7 42 98 98 98 98 98 98 98 98 38 38 38 38
 38 38 38 7 7 7 7 7 7 7 7 7 98 98 98 98 98 98 98 98
 98 98 38 38 38 38 38 38 7 7 7 7 7 7 7 7 7 98 98 98
 98 98 98 98 98 98 98 38 38 38 38 38 38 38 7 7 7 7 7 7
 7 98 98 98 98 98 98 98 98 98 98 98 38 38 38 38 38 38 38 7
 7 7 7 7 7 32 32 98 98 98 98 98 36 98 98 98 98 38 38 38
 38 38 38 1 1 7 7 7 7 7 32 32 32 98 98 98 36 36 36 98
 98 98 38 38 38 38 100 1 1 1 1 96 96 32 32 32 32 32 32 98
 98 36 36 36 98 98 98 100 100 100 100 100 1 1 1 1 96 96 32 32
 32 32 32 32 98 98 36 36 36 98 98 53 100 100 100 100 100 1 1 1
 1 96 96 32 32 32 32 32 32 32 98 36 36 43 43 53 53 53 100 100
 100 100 1 1 1 1 96 96 32 32 32 32 32 32 32 58 43 43 43 43
 53 53 53 31 31 31 31 31 1 1 1 96 32 32 32 32 32 32 32 32
 58 43 43 43 43 53 53 53 53 31 31 31 31 25 1 1 21 21 32 32
 32 32 32 32 32 53 53 53 53 53 53 53 53 53 31 31 31 31 25 25
 25 21 21 21 32 32 32 32 32 32 91 53 53 53 53 53 53 53 53 53
 31 31 31 25 25 25 67 21 21 21 32 32 42 42 42 91 91 53 53 53
 53 53 53 53 53 53 31 31 67 67 67 67 67 21 21 42 42 42 42 42
 91 91 91 91 53 53 53 53 53 53 53 53 67 67 67 67 67 67 21 21
 42 42 42 42 42 42 91 91 91 53 53 53 53 53 53 53 53 67 67 67
 67 67 67 67 42 42 42 42 42 42 42 42 91 91 81 81 81 81 81 53
 53 67 67 67 67 67 67 67 67 42 42 42 42 42 42 42 42 42 48 81
 81 81 81 81 81 81 67 67 67 67 67 67 67 42 42 42 42 42 42 42
 42 42 42 48 48 81 81 81 81 81 81 67 67 67 67 67 67 67 42 42
 42 42 42 42 42 42 42 42 48 48 81 81 81 81 81 81 9 67 67 67
 7 7 7 42 42 42 42 42 42 42 42 42 42 48 48 81 81 81 81 81
 81 9 9 7 7 7 7 7 7 42 42 42 42 42 42 52 52 42 42 81
 81 81 81 81 81 9 9 82 82 82 82 7 7 7 42 42 42 42 42 52
 52 52 52 52 81 81 81 81 81 9 9 9 82 82 82 82 7 7 7 7
 42 42 42 42 52 52 52 52 52 49 81 81 81 38 38 38 38 82 82 82
 82 7 7 7 7 7 42 42 42 52 52 52 52 98 98 75 81 38 38 38
 38 38 38 7 7 7 7 7 7 7 7 7 42 42 52 98 98 98 98 98
 98 38 38 38 38 38 38 38 7 7 7 7 7 7 7 7 7 98 98 98
 98 98 98 98 98 98 38 38 38 38 38 38 38 7 7 7 7 7 7 7
 7 7 98 98 98 98 98 98 98 98 98 98 38 38 38 38 38 38 38 7
 7 7 7 7 7 32 32 98 98 98 98 98 98 98 98 98 98 38 38 38
 38 38 38 38 7 7 7 7 7 7 32 32 32 98 98 98 98 36 98 98
 98 98 38 38 38 38 38 38 1 1 1 7 7 7 32 32 32 32 32 98
 98 36 36 36 98 98 98 100 100 100 100 100 1 1 1 1 1 1 32 32
 32 32 32 32 98 98 36 36 36 98 98 100 100 100 100 100 100 1 1 1
 1 1 32 32 32 32 32 32 32 32 98 36 36 36 98 53 53 100 100 100
 100 100 1 1 1 1 1 32 32 32 32 32 32 32 32 32 36 36 43 43
 53 53 100 100 100 100 100 1 1 1 1 1 32 32 32 32 32 32 32 32
 32 43 43 43 43 53 53 53 53 100 100 100 1 1 1 1 1 32 32 32
 32 32 32 32 32 32 43 43 43 43 53 53 53 53 53 31 31 31 1 1
 1 1 32 32 32 32 32 32 32 32 91 53 53 53 53 53 53 53 53 53
 53 31 31 44 1 1 1 32 32 32 32 32 32 32 91 91 91 53 53 53
 53 53 53 53 53 53 53 44 44 44 44 67 32 32 32 32 32 32 42 91
 91 91 91 53 53 53 53 53 53 53 53 53 44 44 44 67 67 63 63 63
 63 42 42 42 91 91 91 91 91 53 53 53 53 53 53 53 53 44 44 67
 67 67 63 63 63 42 42 42 42 42 91 91 91 91 53 53 53 53 53 53
 53 53 44 67 67 67 67 63 63 63 42 42 42 42 42 42 91 91 91 81
 81 81 81 81 81 53 53 67 67 67 67 67 13 63 42 42 42 42 42 42
 42 42 91 91 81 81 81 81 81 81 81 81 67 67 67 67 67 13 42 42
 42 42 42 42 42 42 42 42 81 81 81 81 81 81 81 81 81 67 67 67
 13 13 13 42 42 42 42 42 42 42 42 42 42 81 81 81 81 81 81 81
 81 81 82 82 82 82 7 7 42 42 42 42 42 42 42 42 42 42 81 81
 81 81 81 81 81 81 81 82 82 82 82 7 7 7 42 42 42 42 42 52
 52 52 52 52 81 81 81 81 81 81 81 82 82 82 82 82 82 7 7 42
 42 42 42 42 52 52 52 52 52 81 81 81 81 81 81 81 82 82 82 82
 82 82 7 7 7 42 42 42 52 52 52 52 52 52 75 81 81 81 81 81
 38 82 82 82 82 82 7 7 7 7 7 42 42 52 52 52 52 52 75 75
 75 80 80 80 38 38 38 82 82 82 82 7 7 7 7 7 7 42 52 52
 52 98 98 98 75 75 18 18 38 38 38 38 38 7 7 7 7 7 7 7
 20 20 20 98 98 98 98 98 98 98 98 18 18 18 18 38 38 38 7 7
 7 7 7 7 7 20 20 20 98 98 98 98 98 98 98 98 18 18 18 38
 38 38 38 38 7 7 7 7 7 20 32 32 32 98 98 98 98 98 98 98
 98 18 18 38 38 38 38 38 1 1 7 7 7 20 20 32 32 32 32 98
 98 98 98 98 98 98 98 38 38 38 38 38 1 1 1 1 1 7 32 32
 32 32 32 32 98 98 36 36 36 98 98 98 100 100 100 100 100 1 1 1
 1 1 32 32 32 32 32 32 32 32 98 36 36 36 98 98 98 100 100 100
 100 100 1 1 1 1 1 32 32 32 32 32 32 32 32 32 36 36 36 98