# vtk DataFile Version 2.0
Data set from IO Version 6.4.197.9a0dee2
ASCII

DATASET RECTILINEAR_GRID
DIMENSIONS 31 31 31
X_COORDINATES 31 float
-4.700000 4.700000 14.099999 23.500000 32.899998 42.299999 51.699997 61.099995 70.500000 79.900002 89.300003 98.699997 108.099998 117.500000 126.899994 136.300003 145.699997 155.099991 164.500000 173.899994 183.300003 
192.699997 202.099991 211.500000 220.899994 230.299988 239.699997 249.099991 258.499969 267.899963 277.299988 
Y_COORDINATES 31 float
-4.700000 4.700000 14.099999 23.500000 32.899998 42.299999 51.699997 61.099995 70.500000 79.900002 89.300003 98.699997 108.099998 117.500000 126.899994 136.300003 145.699997 155.099991 164.500000 173.899994 183.300003 
192.699997 202.099991 211.500000 220.899994 230.299988 239.699997 249.099991 258.499969 267.899963 277.299988 
Z_COORDINATES 31 float
-4.700000 4.700000 14.099999 23.500000 32.899998 42.299999 51.699997 61.099995 70.500000 79.900002 89.300003 98.699997 108.099998 117.500000 126.899994 136.300003 145.699997 155.099991 164.500000 173.899994 183.300003 
192.699997 202.099991 211.500000 220.899994 230.299988 239.699997 249.099991 258.499969 267.899963 277.299988 
CELL_DATA 27000
SCALARS FeatureIds int 1
LOOKUP_TABLE default
 102 102 42 42 412 412 412 412 25 25 25 196 196 326 326 326 218 218 218 218
 202 202 194 194 194 194 102 102 102 102 102 42 42 230 42 412 412 412 25 25
 25 25 326 326 326 326 218 218 218 218 202 202 194 194 194 194 102 102 102 102
 102 42 42 42 42 42 42 42 25 25 25 25 326 326 326 218 218 218 218 218
 202 202 194 194 194 194 102 102 102 102 42 42 42 42 42 42 42 42 25 25
 25 25 25 326 326 388 218 218 218 218 62 62 194 194 194 194 102 102 102 102
 42 42 42 42 42 42 42 42 65 65 65 65 65 98 98 388 269 269 269 62
 62 62 62 192 192 345 345 345 345 345 42 42 42 42 42 42 42 65 65 65
 65 65 65 98 98 388 79 79 79 62 62 62 62 192 192 345 345 345 345 345
 42 42 333 333 42 42 145 65 65 65 65 65 65 26 26 26 26 79 79 62
 62 62 62 192 192 345 345 345 345 345 115 115 333 145 145 145 145 145 65 65
 65 65 26 26 26 26 408 79 79 62 62 62 62 192 192 345 345 345 345 345
 115 115 115 145 145 145 145 145 65 65 65 362 26 26 73 73 73 156 156 156
 62 34 34 34 34 34 20 20 20 115 115 115 321 145 145 145 145 145 48 48
 362 362 362 26 73 73 73 156 156 91 91 34 34 34 34 82 20 20 20 115
 321 321 321 321 145 145 48 48 48 63 63 362 75 73 73 73 73 156 156 91
 91 91 34 82 82 82 20 20 20 115 321 321 321 321 48 48 48 48 48 63
 63 63 75 73 73 73 73 156 156 91 91 91 82 82 82 82 394 394 20 115
 379 379 379 379 48 48 48 48 48 312 312 312 75 358 358 358 358 309 180 180
 180 180 180 82 394 394 394 394 394 257 7 7 379 379 48 48 48 48 312 312
 312 312 358 358 358 358 358 309 309 180 180 180 180 180 394 394 394 394 257 257
 257 7 7 379 48 48 48 48 312 312 312 312 358 358 358 358 358 358 309 180
 180 180 180 180 394 394 394 244 244 257 120 120 120 120 120 134 134 134 134 312
 312 322 358 358 358 358 358 358 309 180 180 180 180 180 394 394 394 244 244 244
 120 120 120 120 120 134 134 134 132 132 74 351 358 358 358 358 358 309 263 263
 263 180 180 18 18 18 18 244 244 244 210 210 210 210 210 134 134 134 132 74
 74 351 351 358 358 358 358 309 263 263 263 263 18 18 18 18 18 18 244 210
 210 210 210 210 210 210 134 134 74 74 74 351 351 259 358 358 168 168 263 263
 263 263 18 18 18 18 18 18 210 210 210 210 210 210 210 210 134 74 74 74
 74 74 74 240 240 168 168 168 168 263 263 263 393 393 393 393 393 210 210 210
 210 210 210 210 210 210 74 74 74 74 74 74 240 240 240 334 334 334 334 334
 334 334 393 393 393 393 393 393 210 210 210 210 210 210 210 212 212 212 74 74
 74 74 310 310 240 334 334 334 334 334 334 174 393 393 393 393 393 106 106 210
 385 303 303 251 251 212 212 212 56 56 56 266 266 266 266 334 334 334 334 174
 174 174 174 393 393 393 106 106 106 385 385 303 303 251 251 364 364 212 56 56
 56 266 266 266 266 125 334 334 334 174 174 174 174 393 393 106 106 106 106 385
 385 303 303 251 364 364 364 364 364 56 56 266 266 266 125 125 236 236 236 174
 174 174 174 384 106 106 106 106 106 385 385 303 303 364 364 364 364 364 364 364
 364 364 266 266 125 125 236 236 236 236 174 174 384 384 384 106 106 106 106 211
 211 211 211 364 364 364 364 364 364 364 364 364 196 266 125 236 236 236 236 378
 378 317 384 384 384 384 211 211 211 211 211 211 211 364 364 364 364 364 364 364
 196 196 196 196 196 236 236 236 378 378 378 317 123 123 123 123 211 211 211 211
 211 254 254 254 364 364 364 364 196 196 196 196 196 196 196 313 313 313 378 378
 378 123 123 123 123 225 225 225 211 211 102 254 254 254 254 364 364 364 196 196
 196 196 196 196 196 313 313 218 218 218 378 194 194 194 194 194 225 102 102 102
 254 254 254 230 42 42 412 25 25 25 25 25 326 326 326 313 313 218 218 218
 218 194 194 194 194 194 201 102 102 102 102 42 42 230 230 42 42 25 25 25
 25 25 326 326 326 326 218 218 218 218 202 194 194 194 194 194 201 102 102 102
 42 42 42 42 42 42 42 42 25 25 25 25 326 326 326 388 269 218 218 218
 202 194 194 194 194 194 201 102 102 102 42 42 42 42 42 42 42 42 25 25
 25 25 326 326 388 388 388 269 269 218 62 194 194 194 194 194 345 345 102 102
 42 42 42 42 42 42 42 42 65 65 65 65 65 98 388 388 269 269 269 62
 62 62 192 192 192 345 345 345 345 345 42 42 42 42 42 42 42 42 65 65
 65 65 98 98 98 269 269 269 167 167 62 62 192 192 192 345 345 345 345 345
 115 42 42 42 42 42 42 65 65 65 65 65 26 26 26 26 269 167 167 167
 62 62 192 192 192 345 345 345 345 345 115 115 115 145 145 145 145 145 401 65
 65 26 26 26 26 26 408 167 167 167 62 62 62 192 192 345 345 345 345 115
 115 115 115 145 145 145 145 145 401 401 362 362 26 26 26 73 73 156 156 167
 62 34 34 34 34 34 20 20 20 115 115 115 115 145 145 145 145 145 401 401
 362 362 362 26 73 73 73 156 156 91 91 34 34 34 34 34 20 20 20 115
 115 115 115 145 145 145 145 48 63 63 63 362 362 73 73 73 73 156 156 91
 91 34 34 34 34 20 20 20 20 115 379 379 379 379 145 145 48 48 63 63
 63 63 362 73 73 73 73 156 156 91 91 180 180 82 394 394 394 394 20 115
 379 379 379 379 48 48 48 48 48 63 63 63 362 358 358 73 309 309 180 180
 180 180 180 180 394 394 394 394 394 257 257 379 379 379 379 48 48 48 48 63
 63 322 322 358 358 358 358 309 309 180 180 180 180 180 394 394 394 394 257 257
 257 257 379 379 379 48 48 48 322 322 322 322 322 358 358 358 358 309 309 180
 180 180 180 180 394 394 394 394 257 257 257 257 379 379 134 134 134 134 134 322
 322 322 322 358 358 358 358 309 309 309 180 180 180 180 394 394 394 394 257 257
 210 210 210 210 210 134 134 134 134 322 322 322 322 358 358 358 358 309 309 309
 263 153 180 18 18 18 18 18 244 244 210 210 210 210 210 134 134 134 134 74
 74 74 74 358 358 358 309 309 309 309 153 153 153 18 18 18 18 18 210 210
 210 210 210 210 210 134 134 134 74 74 74 74 259 259 259 358 67 67 67 67
 263 153 18 18 18 18 18 18 210 210 210 198 210 210 210 210 134 74 74 74
 74 74 259 259 259 259 67 67 67 67 67 109 109 18 18 18 18 18 210 210
 210 210 210 210 210 210 134 74 74 74 74 74 240 240 240 334 334 334 334 334
 334 337 337 393 393 366 366 366 210 210 210 210 210 210 210 210 212 74 74 74
 74 74 240 240 240 334 334 334 334 334 334 337 337 337 366 366 366 106 106 210
 210 210 251 251 251 364 364 364 56 56 56 266 266 266 266 334 334 334 334 334
 174 174 337 366 366 366 106 106 106 106 385 303 251 251 251 364 364 364 56 56
 56 266 266 266 266 266 334 334 334 174 174 174 174 366 366 106 106 106 106 106
 385 303 251 251 364 364 364 364 364 56 56 266 266 266 266 236 236 236 236 174
 174 174 384 384 106 106 106 106 106 106 211 303 175 251 364 364 364 364 364 364
 364 266 266 266 266 236 236 236 236 236 174 384 384 384 384 106 106 106 106 106
 211 254 254 364 364 364 364 364 364 364 364 364 266 266 266 236 236 236 236 236
 378 123 384 384 384 384 106 211 211 211 211 254 254 254 364 364 364 364 364 364
 196 196 196 196 196 236 236 236 236 236 378 123 123 123 384 384 211 211 211 211
 211 254 254 254 254 364 364 364 364 196 196 196 196 196 196 313 313 313 313 378
 378 123 123 123 123 123 225 211 211 211 254 254 254 254 254 364 364 364 25 196
 196 196 196 326 326 313 313 313 313 218 378 194 123 194 194 194 201 102 102 211
 254 254 254 254 42 42 42 90 396 396 25 55 326 326 326 313 313 313 218 218
 194 194 194 194 194 201 201 201 201 201 254 284 42 42 42 42 42 90 25 25
 25 25 326 326 326 313 269 269 218 218 194 194 194 194 194 194 201 201 201 201
 42 42 42 42 42 42 42 42 25 25 25 25 326 326 326 388 269 269 269 269
 194 194 194 194 194 194 201 201 201 201 42 42 42 42 42 42 42 42 25 25
 25 25 326 326 388 388 269 269 269 269 194 194 194 194 194 194 201 201 201 201
 42 42 42 42 42 42 42 42 65 65 65 65 65 98 388 388 269 269 269 269
 62 192 192 192 192 345 345 345 345 345 42 42 42 42 42 42 42 293 65 65
 65 65 26 98 98 269 269 269 167 167 167 192 192 192 192 345 345 345 345 345
 115 115 42 42 42 42 145 293 65 65 65 65 26 26 26 26 269 167 167 167
 167 397 192 192 192 345 345 345 345 345 115 115 115 145 145 145 145 401 401 401
 401 26 26 26 26 26 26 167 167 167 167 397 397 192 192 345 345 345 345 115
 115 115 115 145 145 145 145 401 401 401 401 362 26 26 73 73 73 156 167 167
 167 360 34 34 34 34 20 20 20 115 115 115 115 145 145 145 145 401 401 401
 401 362 362 73 73 73 73 156 156 167 360 360 34 34 34 34 20 20 20 115
 115 115 115 145 145 145 145 401 401 401 401 362 362 73 73 73 73 156 156 91
 360 360 34 34 34 34 20 20 20 115 115 379 379 379 145 145 145 48 63 63
 63 63 362 73 73 73 73 156 156 180 180 180 180 180 394 394 394 394 20 115
 379 379 379 379 145 48 48 48 63 63 63 63 362 73 73 309 309 309 309 180
 180 180 180 180 394 394 394 394 257 257 257 379 379 379 379 258 48 48 322 322
 322 322 322 358 358 358 309 309 309 180 180 180 180 180 394 394 394 394 257 257
 257 257 379 379 258 258 258 322 322 322 322 322 322 358 358 358 309 309 309 309
 180 180 180 180 394 394 394 394 257 257 257 257 379 379 258 258 134 134 322 322
 322 322 322 358 358 358 309 309 309 309 180 180 180 180 394 394 394 394 257 257
 210 210 210 210 210 134 134 134 134 322 322 322 322 358 358 358 309 309 309 309
 153 153 153 18 18 18 18 18 257 257 210 210 210 210 210 134 134 134 134 74
 74 74 259 259 358 309 309 309 309 309 153 153 153 18 18 18 18 18 210 210
 210 210 210 210 210 210 134 134 74 74 74 74 259 259 259 259 67 67 67 67
 153 153 109 109 18 18 18 18 210 210 210 210 210 210 210 210 134 74 74 74
 74 74 259 259 259 259 67 67 67 67 153 109 109 109 366 366 366 366 210 210
 210 210 210 210 210 210 74 74 74 74 74 74 240 259 259 259 334 334 334 334
 334 337 337 366 366 366 366 366 210 210 210 210 210 210 210 343 364 74 74 74
 74 74 240 240 315 315 334 334 334 334 334 337 337 337 366 366 366 366 210 210
 210 210 210 251 251 364 364 364 56 56 56 266 266 266 315 334 334 334 334 334
 174 337 337 337 366 366 366 106 106 106 210 210 251 251 251 364 364 364 56 56
 56 266 266 266 266 266 334 334 334 334 174 174 337 337 366 366 106 106 106 106
 175 175 175 175 364 364 364 364 364 56 56 266 266 266 266 236 236 236 236 236
 174 174 94 94 94 106 106 106 106 106 175 175 175 175 175 364 364 364 364 364
 364 364 266 266 266 236 236 236 236 236 236 384 384 94 384 384 106 106 106 106
 254 254 175 175 175 364 364 364 364 364 364 364 266 266 266 236 236 236 236 236
 123 123 384 384 384 384 106 106 211 211 254 254 254 254 175 364 364 364 364 364
 364 55 196 196 313 313 313 313 313 313 123 123 123 123 384 384 211 211 211 211
 254 254 254 254 254 364 364 364 364 396 55 55 55 196 313 313 313 313 313 313
 123 123 123 123 123 123 201 211 211 254 254 254 254 254 254 254 364 364 396 396
 55 55 55 326 313 313 313 313 313 218 218 123 123 123 194 201 201 201 201 254
 254 254 254 254 42 42 90 90 396 396 55 55 55 326 326 313 313 313 313 218
 194 194 194 194 81 81 201 201 201 201 284 284 284 42 42 42 42 90 90 90
 55 55 326 326 326 269 269 269 269 269 194 194 194 194 81 81 201 201 201 201
 284 284 42 42 42 42 42 90 90 25 25 25 326 326 326 269 269 269 269 269
 194 194 194 194 194 201 201 201 201 201 42 42 42 42 42 42 42 42 293 293
 293 293 326 326 388 269 269 269 269 269 269 194 194 194 194 81 201 201 201 201
 42 42 42 42 42 42 42 293 293 293 293 293 293 98 388 269 269 269 269 269
 269 192 192 192 192 345 345 345 345 345 115 42 42 42 42 42 42 293 293 293
 293 293 26 98 98 269 269 269 269 167 397 397 397 192 192 148 345 345 345 345
 115 115 115 42 42 42 293 293 293 293 293 293 26 26 26 269 269 269 167 167
 397 397 397 397 192 345 345 345 345 345 115 115 115 115 145 145 145 401 401 401
 401 401 26 26 26 26 269 167 167 167 397 397 397 397 397 148 345 345 345 115
 115 115 115 115 145 145 145 401 401 401 401 401 26 26 73 73 73 156 167 167
 397 397 397 34 34 34 20 20 20 115 115 115 115 115 145 145 145 401 401 401
 401 401 362 73 73 73 73 156 156 167 360 360 360 34 34 34 20 20 20 115
 115 115 115 115 145 145 145 401 401 401 401 401 362 73 73 73 73 156 156 360
 360 360 360 34 34 127 20 20 20 115 115 115 115 115 145 145 145 401 401 401
 401 401 401 73 73 73 73 309 309 180 180 180 180 180 394 394 394 394 20 115
 257 379 379 379 258 258 258 48 63 63 63 401 401 309 309 309 309 309 309 180
 180 180 180 180 394 394 394 394 257 257 257 257 379 379 258 258 258 258 322 322
 322 322 322 358 358 309 309 309 309 309 180 180 180 180 394 394 394 394 257 257
 257 257 379 258 258 258 258 258 322 322 322 322 322 358 358 309 309 309 309 309
 180 180 180 180 394 394 394 394 257 257 257 257 161 161 258 258 258 258 322 322
 322 322 322 358 358 309 309 309 309 309 309 180 180 180 394 394 394 77 257 257
 210 210 210 161 161 258 134 134 322 322 322 322 322 358 358 309 309 309 309 309
 153 153 153 153 18 18 18 77 77 257 210 210 210 161 161 161 134 134 134 322
 322 322 259 259 358 309 309 309 309 309 153 107 153 109 18 18 18 18 210 210
 210 210 210 210 161 161 134 134 74 74 74 74 259 259 259 309 67 67 67 67
 153 153 109 109 109 18 18 77 210 210 210 210 210 210 210 343 343 74 74 74
 74 74 259 259 259 259 67 67 67 67 153 109 109 109 366 366 366 366 210 210
 210 210 210 210 210 343 343 343 74 74 74 74 259 259 315 315 67 67 67 67
 334 337 337 366 366 366 366 366 210 210 210 210 210 210 343 343 343 343 343 74
 74 183 240 315 315 315 334 334 334 334 334 337 337 337 366 366 366 366 366 210
 210 210 210 175 343 343 343 343 343 56 56 183 266 315 315 315 334 334 334 334
 337 337 337 337 366 366 366 366 106 106 175 175 175 175 175 364 364 364 364 56
 56 266 266 266 266 315 334 334 334 334 337 337 337 337 366 366 366 106 106 106
 175 175 175 175 175 364 364 364 364 364 56 266 266 266 266 236 236 236 236 236
 174 94 94 94 94 366 106 106 106 411 175 175 175 175 175 364 364 364 364 364
 364 364 266 266 266 236 236 236 236 236 236 94 94 94 94 94 106 106 411 411
 254 175 175 175 175 175 364 364 364 364 364 55 266 266 266 313 236 236 236 236
 123 123 94 94 94 94 367 106 411 254 254 254 254 175 175 175 364 364 364 364
 55 55 55 55 313 313 313 313 313 313 123 123 123 123 123 123 367 367 367 254
 254 254 254 254 254 175 364 364 396 396 55 55 55 55 313 313 313 313 313 313
 123 123 123 123 123 367 367 367 367 254 254 254 254 254 254 254 364 396 396 396
 55 55 55 326 313 313 313 313 313 218 123 123 123 123 81 81 201 367 201 254
 254 254 254 339 339 339 90 90 90 396 55 55 55 326 326 313 313 269 269 269
 137 194 194 81 81 81 81 367 201 254 254 284 339 339 339 42 90 90 90 90
 55 55 326 326 326 269 269 269 269 269 269 194 194 81 81 81 201 201 201 201
 284 284 339 339 42 42 90 90 90 90 293 293 326 326 326 269 269 269 269 269
 269 194 194 81 81 81 201 201 201 201 284 42 42 42 42 42 42 293 293 293
 293 293 293 348 348 269 269 269 269 269 269 194 194 81 81 81 201 201 201 201
 93 42 42 42 42 42 42 293 293 293 293 293 293 348 348 348 269 269 269 269
 269 397 192 148 148 148 148 148 93 93 93 93 42 42 42 42 293 293 293 293
 293 293 293 348 348 348 269 269 269 269 397 397 397 148 148 148 148 148 93 93
 93 115 115 42 42 42 293 293 293 293 293 293 293 348 348 348 269 269 167 167
 397 397 397 397 148 148 148 148 93 93 115 115 115 115 262 262 293 293 293 293
 293 293 26 348 348 348 269 269 167 397 397 397 397 397 148 148 148 148 93 115
 115 115 115 115 262 262 262 401 401 401 401 401 26 26 73 73 372 372 167 397
 397 397 397 397 397 148 148 20 342 115 115 115 115 115 262 262 262 401 401 401
 401 401 401 73 73 73 73 372 372 397 360 360 360 397 127 127 20 20 342 115
 115 115 115 115 262 262 262 401 401 401 401 401 401 73 73 73 73 372 372 360
 360 360 360 127 127 127 127 20 342 115 115 115 115 115 262 262 262 401 401 401
 401 401 401 73 73 73 309 309 309 180 180 180 180 127 127 127 127 127 127 115
 257 379 379 258 258 258 258 258 401 401 401 401 401 309 309 309 309 309 309 180
 180 180 180 154 127 127 127 127 127 257 257 257 379 258 258 258 258 258 258 322
 322 322 209 309 309 309 309 309 309 309 180 180 180 180 394 394 394 394 257 257
 257 257 258 258 258 258 258 258 322 322 322 322 209 309 309 309 309 309 309 309
 309 180 180 154 394 394 77 77 257 257 257 161 161 161 258 258 258 258 322 322
 322 322 322 358 309 309 309 309 309 309 309 180 153 153 77 77 77 77 77 257
 161 161 161 161 161 258 258 258 322 322 322 322 322 309 309 309 309 309 309 309
 153 153 153 153 77 77 77 77 77 77 210 161 161 161 161 161 327 327 327 322
 322 322 304 304 309 309 309 309 309 309 153 153 153 109 77 77 77 77 77 77
 210 210 161 161 161 161 327 327 327 327 74 304 304 304 304 304 398 398 398 67
 153 153 109 109 109 77 77 77 77 77 210 210 210 161 161 343 343 343 343 74
 183 183 304 304 304 304 398 398 398 67 153 109 109 109 366 366 366 77 77 210
 210 210 210 210 343 343 343 343 343 74 183 183 304 304 304 304 398 398 398 398
 153 337 337 366 366 366 366 366 366 210 210 210 210 343 343 343 343 343 343 183
 183 183 183 315 315 315 334 334 334 334 334 337 337 366 366 366 366 366 366 210
 111 111 175 175 343 343 343 343 343 267 267 183 183 315 315 315 334 334 334 334
 337 337 337 337 366 366 366 366 366 411 111 111 175 175 175 343 343 343 267 267
 267 183 266 266 315 315 334 334 334 334 97 337 337 337 366 366 366 366 411 411
 411 175 175 175 175 175 364 364 364 267 267 267 266 266 266 315 236 236 236 236
 97 94 94 94 94 366 366 411 411 411 411 175 175 175 175 175 364 364 364 364
 267 267 266 266 266 236 236 236 236 236 94 94 94 94 94 94 411 411 411 411
 175 175 175 175 175 175 364 364 364 364 364 55 55 239 239 313 236 236 236 236
 94 94 94 94 94 94 367 411 411 411 254 254 175 175 175 175 364 364 364 364
 55 55 55 239 313 313 313 313 313 313 123 123 123 123 123 367 367 367 367 254
 254 254 254 254 175 175 364 396 396 396 55 55 55 55 313 313 313 313 313 137
 137 123 123 123 123 367 367 367 367 254 254 254 254 254 254 254 396 396 396 396
 55 55 55 55 313 313 313 313 313 137 137 123 123 123 81 81 367 367 367 254
 254 254 339 339 339 339 90 90 90 90 55 55 55 101 101 101 328 328 137 137
 137 24 81 81 81 81 81 367 367 367 254 254 339 339 339 339 90 90 90 90
 90 55 101 101 101 101 328 328 328 328 24 24 24 81 81 81 81 201 201 201
 284 284 339 339 339 42 90 90 90 90 90 293 293 101 101 101 328 328 328 328
 24 24 194 81 81 81 81 201 201 201 93 41 339 339 339 42 90 293 293 293
 293 293 293 348 348 348 269 269 269 269 269 397 81 81 81 81 81 201 201 201
 93 93 42 42 42 42 293 293 293 293 293 293 293 348 348 348 348 269 269 269
 397 397 397 148 148 148 148 148 93 93 93 93 93 42 42 293 293 293 293 293
 293 293 293 348 348 348 348 269 269 397 397 397 397 148 148 148 148 148 93 93
 93 93 297 297 293 293 293 293 293 293 293 293 293 348 348 348 348 269 167 397
 397 397 397 397 148 148 148 148 93 93 115 115 115 115 262 262 293 293 293 293
 293 293 293 348 348 348 348 372 372 397 397 397 397 397 148 148 148 148 93 93
 115 115 115 262 262 262 262 401 401 401 401 401 401 348 369 369 372 372 372 397
 397 397 397 397 148 148 148 342 342 342 241 241 241 262 262 262 262 262 401 401
 401 401 401 369 369 369 372 372 372 397 397 397 397 397 397 127 342 342 342 342
 241 241 241 262 262 262 262 262 401 401 401 401 401 369 369 369 372 372 372 372
 397 397 397 397 127 127 127 342 342 342 241 241 241 241 262 262 262 262 401 401
 401 401 401 369 369 369 372 372 372 372 397 397 154 154 127 127 127 127 342 342
 241 308 241 258 258 258 258 258 401 401 401 114 114 209 369 309 309 309 309 309
 180 154 154 154 127 127 127 127 127 257 308 308 308 258 258 258 258 258 173 173
 173 173 209 209 209 309 309 309 309 309 180 154 154 154 154 154 127 77 77 77
 257 308 161 258 258 258 258 258 173 173 173 173 209 209 209 309 309 309 309 309
 309 154 154 154 154 77 77 77 77 77 257 161 161 161 258 258 258 173 173 173
 173 173 209 209 209 309 309 309 309 309 309 154 154 154 77 77 77 77 77 77
 77 161 161 161 161 161 258 327 173 173 173 173 209 209 209 309 309 309 309 309
 153 153 153 77 77 77 77 77 77 77 77 161 161 161 161 161 327 327 327 327
 173 173 304 304 304 309 309 309 309 309 153 153 153 77 77 77 77 77 77 77
 77 161 161 161 161 161 327 327 327 327 327 304 304 304 304 304 398 398 398 309
 153 153 109 109 77 77 77 77 77 77 210 161 161 161 161 343 343 327 327 327
 183 183 304 304 304 304 398 398 398 398 153 109 109 109 77 77 77 77 77 77
 210 210 210 161 343 343 343 343 343 183 183 183 304 304 304 304 398 398 398 398
 222 222 222 366 366 366 366 77 77 77 111 111 111 343 343 343 343 343 343 183
 183 183 183 304 304 315 398 398 398 398 222 222 222 366 366 366 366 366 366 77
 111 111 111 175 343 343 343 343 343 267 183 183 183 183 315 323 323 274 274 274
 222 222 337 337 366 366 366 366 411 411 111 111 111 175 175 343 343 343 267 267
 267 183 183 183 323 323 323 274 274 97 97 97 97 337 366 366 366 411 411 411
 411 111 175 175 175 175 175 364 267 267 267 183 183 183 323 323 323 274 274 97
 97 97 97 94 94 366 411 411 411 411 411 175 175 175 175 175 175 364 267 267
 267 183 239 239 323 323 323 274 274 97 97 97 94 94 94 94 411 411 411 411
 175 175 175 175 175 175 175 364 364 267 267 239 239 239 239 239 128 128 128 137
 97 97 300 300 300 300 367 411 411 411 254 175 175 175 175 175 175 364 364 364
 55 55 239 239 239 313 128 128 137 137 137 137 300 300 300 300 367 367 367 367
 254 254 254 175 175 175 175 396 396 396 55 55 55 239 239 313 313 313 137 137
 137 137 300 300 300 300 367 367 367 367 254 254 254 254 175 175 175 396 396 396
 55 55 55 55 313 313 313 137 137 137 137 137 300 300 81 81 367 367 367 367
 254 254 339 339 339 339 90 90 90 90 271 271 101 101 101 101 101 328 137 137
 137 24 24 81 81 81 81 367 367 367 254 254 339 339 339 339 90 90 90 90
 90 90 101 101 101 101 328 328 328 328 24 24 24 81 81 81 81 81 367 367
 41 339 339 339 339 339 90 90 90 90 293 293 101 101 101 101 328 328 328 328
 24 24 24 81 81 81 81 81 201 201 41 41 41 339 339 206 90 293 293 293
 293 293 348 348 348 348 328 328 328 328 328 24 24 81 81 81 81 81 201 41
 41 41 41 41 206 206 293 293 293 293 293 293 348 348 348 348 348 328 328 328
 328 397 397 148 148 148 148 148 93 93 41 41 41 41 206 293 293 293 293 293
 293 293 348 348 348 348 348 348 269 397 397 397 397 148 148 148 148 148 93 93
 41 297 297 297 177 177 293 293 293 293 293 293 348 348 348 348 348 286 286 397
 397 397 397 397 148 148 148 148 93 93 297 297 297 297 177 177 177 293 293 293
 293 293 348 348 348 348 286 286 372 397 397 397 397 397 148 148 148 342 342 93
 297 297 297 297 262 262 262 140 293 293 293 293 348 348 369 369 372 372 372 397
 397 397 397 397 397 148 342 342 342 342 241 241 241 262 262 262 262 140 140 401
 401 401 401 369 369 369 372 372 372 372 383 383 383 397 127 342 342 342 342 342
 241 241 241 241 262 262 262 140 140 114 114 114 114 369 369 369 372 372 372 372
 383 383 383 383 127 127 342 342 342 342 241 241 241 241 262 262 262 140 114 114
 114 114 114 369 369 369 372 372 372 372 383 154 154 154 127 127 127 342 342 342
 308 308 308 308 258 258 258 258 173 114 114 114 114 209 369 369 372 309 372 372
 154 154 154 154 154 127 127 127 342 342 308 308 308 308 258 258 258 258 173 173
 173 173 209 209 209 309 309 309 309 309 154 154 154 154 154 154 127 77 77 77
 308 308 308 308 258 258 5 173 173 173 173 173 209 209 209 309 309 309 309 309
 154 154 154 154 154 154 77 77 77 77 77 161 161 161 161 5 5 173 173 173
 173 173 209 209 209 209 309 309 309 309 309 154 154 154 154 77 77 77 77 77
 77 161 161 161 161 5 5 327 173 173 173 173 209 209 209 387 309 309 309 309
 144 144 154 154 77 77 77 77 77 77 77 161 161 161 161 161 327 327 327 327
 173 173 209 209 209 387 387 309 309 309 144 153 144 77 77 77 77 77 77 77
 77 161 161 161 161 327 327 327 327 327 173 304 304 304 304 387 398 398 398 398
 144 144 144 144 77 77 77 77 77 77 77 161 161 161 161 327 327 327 327 327
 183 183 304 304 304 304 398 398 398 398 222 222 144 77 77 77 77 77 77 77
 77 161 161 161 343 343 343 343 343 183 183 183 183 304 304 39 398 398 398 398
 222 222 222 222 77 77 77 77 77 77 111 111 175 343 343 343 343 343 343 183
 183 183 183 183 39 39 39 398 398 222 222 222 222 222 366 366 366 77 77 77
 111 111 175 175 175 343 343 343 267 267 183 183 183 183 323 323 323 274 274 274
 222 222 222 222 366 366 366 366 411 411 111 111 175 175 175 175 343 343 267 267
 183 183 183 183 323 323 323 274 274 97 97 97 97 97 366 366 366 411 411 411
 411 175 175 175 175 175 175 343 267 267 267 183 183 323 323 323 323 274 274 97
 97 97 97 97 97 300 411 411 411 411 411 175 175 175 175 175 175 175 267 267
 267 239 239 239 323 323 323 274 274 97 97 97 97 97 300 300 411 411 411 411
 175 175 175 175 175 175 175 175 364 267 267 239 239 239 239 239 128 128 128 137
 97 97 300 300 300 300 300 411 411 411 175 175 175 175 175 175 175 175 271 271
 239 239 239 239 239 239 128 128 128 137 137 137 300 300 300 300 367 367 367 367
 254 175 175 175 175 175 175 175 271 271 271 239 239 239 239 239 128 128 137 137
 137 137 300 300 300 300 367 367 367 367 254 254 254 254 175 175 175 271 271 271
 271 55 239 239 101 101 101 137 137 137 137 137 300 300 300 81 367 367 367 367
 85 85 85 339 339 339 90 90 1 271 271 271 101 101 101 101 101 328 137 137
 137 24 24 40 81 81 81 367 367 367 85 85 85 339 339 206 206 1 1 1
 1 1 101 101 101 101 101 328 328 328 24 24 24 40 81 81 81 81 367 85
 85 85 85 339 206 206 206 206 1 1 1 1 101 101 101 101 328 328 328 328
 24 24 24 40 81 81 81 81 81 41 41 41 41 206 206 206 206 206 293 293
 293 293 348 348 348 348 328 328 328 328 328 24 24 81 81 81 391 391 41 41
 41 41 41 206 206 206 206 293 293 293 293 293 348 348 348 348 348 328 328 328
 375 375 375 391 391 391 391 391 93 41 41 41 41 41 206 206 293 293 293 293
 293 293 348 348 348 348 348 348 328 375 375 375 375 391 391 391 391 391 391 41
 41 297 297 297 177 177 177 293 293 293 293 293 348 348 348 348 348 286 286 397
 397 397 397 391 391 391 391 391 93 41 297 297 297 297 177 177 177 177 293 293
 293 293 348 348 348 348 286 286 286 397 397 397 397 391 391 391 391 342 342 342
 297 297 297 297 177 177 177 140 140 293 293 293 369 369 369 369 372 372 372 372
 383 383 383 383 320 320 342 342 342 342 241 241 241 241 262 177 140 140 140 401
 293 114 369 369 369 369 372 372 372 372 383 383 383 383 320 320 342 342 342 342
 241 241 241 241 262 262 140 140 140 114 114 114 114 369 369 369 372 372 372 372
 383 383 383 383 320 320 342 342 342 342 241 241 241 241 19 19 140 140 140 114
 114 114 114 114 369 369 372 372 372 372 383 154 154 154 154 154 342 342 342 342
 308 308 308 308 19 19 19 19 114 114 114 114 114 114 369 369 372 372 372 372
 154 154 154 154 154 154 127 342 342 77 308 308 308 308 258 258 258 173 173 173
 173 173 209 209 209 275 103 103 103 103 154 154 154 154 154 154 154 77 77 77
 308 308 308 308 5 5 5 173 173 173 173 173 209 209 209 275 103 103 103 103
 154 154 154 154 154 154 77 77 77 77 77 308 161 161 5 5 5 173 173 173
 173 173 209 209 209 275 103 103 103 103 103 154 154 154 154 77 77 77 77 77
 77 161 161 161 5 5 5 327 173 173 173 173 209 209 209 387 387 103 103 103
 144 144 144 144 77 77 77 77 77 77 77 161 161 161 161 5 327 327 327 173
 173 173 209 209 387 387 387 387 103 103 144 144 144 144 77 77 77 77 77 77
 77 161 161 161 161 327 327 327 327 33 33 33 304 387 387 387 387 387 398 144
 144 144 144 144 298 77 77 77 77 77 77 77 161 161 161 189 189 189 189 189
 183 183 183 304 387 387 387 398 398 144 144 144 144 144 298 298 77 77 77 77
 77 197 197 161 189 189 189 189 189 189 183 183 183 183 39 39 39 39 398 222
 222 222 222 298 298 298 298 77 77 77 197 197 280 280 189 189 189 189 189 189
 183 183 183 183 39 39 39 39 39 97 222 222 222 298 298 298 298 77 77 77
 197 280 280 280 175 189 189 189 189 189 183 183 183 183 323 323 323 274 274 97
 97 222 97 97 97 298 51 51 411 411 280 280 280 280 175 175 189 189 189 189
 183 183 183 323 323 323 323 274 274 97 97 97 97 97 97 51 51 411 411 411
 280 280 280 175 175 175 189 189 189 267 267 183 183 323 323 323 323 274 274 97
 97 97 97 97 45 51 51 411 411 411 64 175 175 175 175 175 175 189 189 267
 126 126 239 239 239 323 323 274 274 97 97 97 97 97 45 45 11 11 411 411
 64 175 175 175 175 175 175 175 364 126 126 126 239 239 239 239 128 128 128 97
 97 97 97 300 300 300 11 11 11 11 64 64 175 175 175 175 175 175 271 271
 126 126 239 239 239 239 128 128 128 137 137 137 300 300 300 300 11 11 11 11
 64 64 175 175 175 175 175 271 271 271 271 126 239 239 239 239 128 128 137 137
 137 137 300 300 300 300 367 367 367 367 85 254 254 254 175 175 175 271 271 271
 271 271 239 239 101 101 101 137 137 137 137 137 137 300 300 300 367 367 367 367
 85 85 85 85 206 206 206 1 1 1 271 271 271 101 101 101 101 328 137 137
 137 24 40 40 40 40 81 367 367 85 85 85 85 85 206 206 206 1 1 1
 1 1 1 101 101 101 101 328 118 118 118 24 24 40 40 40 81 81 85 85
 85 85 85 206 206 206 206 206 1 1 1 1 1 101 101 101 328 328 328 118
 118 24 40 40 40 81 81 81 256 256 41 41 41 206 206 206 206 206 1 293
 293 293 348 348 348 171 171 171 171 118 118 375 375 40 391 391 391 391 391 41
 41 41 41 206 206 206 206 206 293 293 293 293 348 348 348 348 171 171 171 171
 375 375 375 391 391 391 391 391 391 41 41 41 41 206 206 206 206 206 293 293
 293 293 348 348 348 348 348 171 171 375 375 375 375 391 391 391 391 391 391 41
 96 297 297 297 177 177 177 177 380 380 380 380 348 348 348 348 348 286 286 375
 375 375 375 391 391 391 391 391 391 96 297 297 297 297 177 177 177 177 380 380
 380 380 380 348 35 35 372 286 286 375 375 375 375 391 391 391 391 391 342 96
 297 297 297 297 177 177 177 177 380 380 380 380 380 369 369 369 372 372 372 31
 31 383 383 320 320 320 320 342 342 342 283 283 283 19 19 177 177 140 382 380
 380 114 114 369 369 369 372 372 372 31 31 383 383 320 320 320 320 342 342 342