# vtk DataFile Version 2.0
Data set from IO Version 6.4.197.9a0dee2
ASCII

DATASET RECTILINEAR_GRID
DIMENSIONS 31 31 31
X_COORDINATES 31 float
-4.700000 4.700000 14.099999 23.500000 32.899998 42.299999 51.699997 61.099995 70.500000 79.900002 89.300003 98.699997 108.099998 117.500000 126.899994 136.300003 145.699997 155.099991 164.500000 173.899994 183.300003 
192.699997 202.099991 211.500000 220.899994 230.299988 239.699997 249.099991 258.499969 267.899963 277.299988 
Y_COORDINATES 31 float
-4.700000 4.700000 14.099999 23.500000 32.899998 42.299999 51.699997 61.099995 70.500000 79.900002 89.300003 98.699997 108.099998 117.500000 126.899994 136.300003 145.699997 155.099991 164.500000 173.899994 183.300003 
192.699997 202.099991 211.500000 220.899994 230.299988 239.699997 249.099991 258.499969 267.899963 277.299988 
Z_COORDINATES 31 float
-4.700000 4.700000 14.099999 23.500000 32.899998 42.299999 51.699997 61.099995 70.500000 79.900002 89.300003 98.699997 108.099998 117.500000 126.899994 136.300003 145.699997 155.099991 164.500000 173.899994 183.300003 
192.699997 202.099991 211.500000 220.899994 230.299988 239.699997 249.099991 258.499969 267.899963 277.299988 
CELL_DATA 27000
SCALARS FeatureIds int 1
LOOKUP_TABLE default
 147 98 98 83 83 83 83 83 331 331 331 177 177 177 368 368 368 368 368 368
 153 153 315 315 315 315 304 304 304 304 295 295 98 98 83 83 83 248 331 331
 32 32 32 242 242 242 242 368 368 153 153 153 315 315 315 148 304 304 304 304
 295 295 295 98 159 83 248 248 331 331 32 32 32 168 168 168 168 275 275 275
 153 153 315 315 148 148 148 304 304 295 295 295 295 295 159 83 248 331 331 331
 32 32 32 168 168 168 168 275 275 275 264 264 315 148 148 148 148 148 304 295
 295 295 295 295 295 94 270 270 249 249 249 32 32 168 168 168 168 157 157 264
 264 264 264 148 148 148 148 148 304 295 310 310 310 310 310 194 194 270 249 249
 249 249 32 168 168 157 157 157 157 264 264 264 264 264 148 148 148 148 237 295
 310 310 310 310 310 194 194 194 194 249 249 249 249 81 81 81 157 157 132 132
 264 264 264 264 148 148 148 237 237 237 310 310 310 310 310 194 194 194 194 194
 194 218 218 81 81 81 87 87 132 132 132 264 264 264 231 231 231 237 237 237
 237 310 310 62 62 194 194 194 194 194 218 218 218 81 81 81 87 87 87 87
 212 212 212 212 231 231 231 231 237 237 40 310 62 62 62 194 194 194 194 194
 218 218 247 247 247 87 87 87 87 87 212 212 212 212 293 231 231 40 40 40
 67 67 62 62 62 194 194 194 349 349 349 218 218 247 247 87 87 87 87 87
 180 180 293 293 293 293 253 253 253 253 67 67 67 62 62 194 194 349 349 349
 349 291 291 291 291 291 87 87 268 268 180 180 293 293 293 293 253 253 253 253
 253 67 67 67 62 325 325 325 349 349 349 291 291 291 291 291 291 268 268 268
 268 293 293 293 293 293 253 253 253 253 253 67 67 67 95 325 325 325 325 349
 291 291 291 291 291 291 291 268 268 268 268 293 293 293 293 293 253 253 253 253
 253 366 366 366 297 297 325 325 325 291 291 291 291 291 291 291 291 268 268 268
 268 293 293 293 293 293 85 85 85 253 366 366 366 366 297 297 297 325 189 189
 291 291 291 291 291 291 291 268 268 268 204 204 204 293 293 85 85 85 85 85
 366 366 366 366 297 297 297 297 189 189 189 291 291 291 291 322 322 322 204 204
 204 204 204 204 204 85 85 85 85 85 366 366 366 366 297 297 297 297 189 189
 189 291 291 322 322 322 322 322 204 204 204 204 204 204 204 85 85 85 85 85
 366 366 366 366 297 297 297 297 189 189 189 359 322 322 322 322 322 322 204 204
 204 204 204 204 204 85 85 85 85 366 205 149 149 127 127 127 127 127 189 189
 359 359 359 322 322 322 322 322 204 204 204 204 204 348 348 348 86 86 86 205
 205 149 149 127 127 127 127 127 127 359 359 359 359 322 322 322 322 322 204 204
 204 348 348 348 348 348 86 86 205 205 149 149 149 127 127 127 127 127 127 359
 359 359 359 359 322 322 322 214 214 214 204 348 348 348 348 348 86 86 86 273
 149 149 149 127 127 127 127 127 309 309 359 359 359 359 251 251 214 214 214 214
 176 348 348 348 348 348 58 58 58 273 70 70 70 127 127 127 127 127 309 309
 309 359 359 35 251 251 214 214 214 214 176 348 348 348 348 348 58 58 58 58
 70 70 70 70 127 141 141 88 309 309 103 103 103 35 35 214 214 214 214 176
 176 286 286 286 286 286 58 58 58 70 70 70 70 70 70 141 141 88 103 103
 103 103 103 103 103 214 214 214 155 155 155 286 286 286 286 286 286 58 58 70
 70 70 70 70 70 141 141 141 15 103 103 103 103 160 160 160 214 155 155 155
 155 286 286 286 286 286 286 286 70 70 70 70 70 83 83 83 83 83 15 15
 103 103 160 160 160 368 368 155 155 155 155 286 286 286 286 286 286 286 70 70
 70 70 70 83 83 83 83 83 15 15 15 103 160 160 368 368 368 368 155 155
 155 286 286 286 286 286 286 286 304 304 147 147 83 83 83 83 83 83 83 331
 177 177 177 177 368 368 368 368 368 155 155 286 286 286 286 286 304 304 304 304
 147 147 147 83 83 83 83 248 248 32 32 32 32 242 242 242 368 368 368 155
 153 153 153 315 315 304 304 304 304 304 147 147 295 83 83 83 248 248 248 32
 32 32 32 242 242 242 242 275 275 153 153 153 153 315 315 148 304 304 304 304
 295 295 295 295 159 83 248 248 248 32 32 32 32 32 242 242 242 275 275 275
 153 153 153 315 148 148 148 304 304 295 295 295 295 295 295 94 248 331 249 32
 32 32 32 32 168 168 275 275 275 275 264 264 264 148 148 148 148 148 304 295
 295 295 295 295 295 94 94 270 249 249 249 32 32 54 168 168 157 157 275 275
 264 264 264 148 148 148 148 148 304 295 295 295 295 295 94 94 270 270 249 249
 249 249 54 54 54 157 157 157 157 264 264 264 264 264 148 148 148 148 148 295
 237 310 310 310 94 94 94 270 249 249 249 249 249 54 81 157 157 157 157 264
 264 264 264 264 148 231 231 231 237 237 237 237 310 62 62 194 194 194 194 194
 218 218 218 218 81 81 118 118 118 264 264 264 264 264 231 231 231 231 237 237
 237 237 62 62 62 194 194 194 194 218 218 218 218 218 81 81 118 118 118 118
 212 212 212 212 231 231 231 231 237 237 237 62 62 62 62 62 194 194 194 218
 218 218 218 218 218 118 118 118 118 118 212 212 212 212 231 231 231 231 237 237
 67 67 62 62 62 62 194 194 349 349 218 218 218 218 218 118 118 118 118 118
 180 180 180 293 293 293 253 253 253 253 67 67 67 62 62 62 194 349 349 349
 349 218 291 291 291 291 118 118 268 268 180 180 180 293 293 293 253 253 253 253
 67 67 67 62 95 95 376 376 349 349 349 291 291 291 291 291 291 268 268 268
 268 180 293 293 293 293 253 253 253 253 253 67 67 95 95 95 376 376 376 376
 291 291 291 291 291 291 291 268 268 268 268 293 293 293 293 293 253 253 253 253
 253 366 366 366 95 95 95 376 376 376 291 291 291 291 291 291 291 268 268 268
 268 293 293 293 293 293 293 253 253 253 366 366 366 366 297 297 297 297 376 376
 291 291 291 291 291 291 291 268 268 268 204 204 204 293 293 293 85 85 85 85
 366 366 366 366 297 297 297 297 189 189 189 291 291 291 291 291 322 204 204 204
 204 204 204 204 204 85 85 85 85 85 366 366 366 366 297 297 297 297 189 189
 189 189 291 322 322 322 322 322 204 204 204 204 204 204 204 85 85 85 85 366
 366 366 366 297 297 297 297 297 189 189 189 189 322 322 322 322 322 322 204 204
 204 204 204 204 204 204 85 85 85 366 205 149 149 127 127 127 127 127 189 359
 359 359 359 322 303 303 322 322 204 204 204 204 204 348 348 348 86 86 205 205
 205 149 149 127 127 127 127 127 127 359 359 359 359 322 322 303 322 320 320 204
 204 348 348 348 348 348 86 86 205 205 149 149 149 127 127 127 127 127 127 359
 359 359 359 359 322 322 320 320 320 320 204 348 348 348 348 348 58 86 273 273
 149 149 149 127 127 127 127 127 309 309 359 359 359 359 251 214 214 214 214 214
 176 348 348 348 348 348 58 58 58 273 149 149 149 127 127 127 127 127 309 309
 309 359 359 35 35 214 214 214 214 214 176 348 348 348 348 58 58 58 58 58
 109 109 109 109 127 141 141 88 309 309 309 35 35 35 35 214 214 214 214 214
 176 286 286 286 286 58 58 58 58 58 109 109 109 109 109 141 141 88 88 15
 103 103 35 35 35 35 214 214 155 155 155 286 286 286 286 286 286 58 58 109
 109 109 109 109 141 141 141 141 15 15 15 103 160 160 160 160 298 298 155 155
 155 286 286 286 286 286 286 58 58 109 109 109 109 83 83 83 141 141 15 15
 15 103 160 160 160 160 298 298 155 155 155 286 286 286 286 286 286 286 129 129
 147 147 147 83 83 83 83 83 15 15 15 103 160 160 160 368 368 368 155 155
 155 286 286 286 286 286 286 286 304 129 147 147 147 83 83 83 83 83 83 15
 32 32 177 160 368 368 368 368 155 155 155 286 286 286 286 286 304 304 304 304
 147 147 147 83 83 83 83 248 248 32 32 32 32 32 242 242 368 368 368 155
 153 153 153 286 286 304 304 304 304 304 147 147 147 147 83 83 248 248 248 32
 32 32 32 242 242 242 242 275 275 275 153 153 153 148 148 148 304 304 304 304
 295 295 295 295 295 83 248 248 248 32 32 32 32 32 242 242 275 275 275 275
 153 153 153 148 148 148 148 304 304 295 295 295 295 295 295 94 248 248 249 32
 32 32 32 54 168 168 275 275 275 275 264 264 264 148 148 148 148 148 304 295
 295 295 295 295 94 94 94 94 249 249 249 32 54 54 54 54 275 275 275 275
 264 264 264 148 148 148 148 148 304 295 295 295 295 295 94 94 94 94 249 249
 249 249 54 54 54 157 157 157 157 264 264 264 264 264 148 148 148 148 237 295
 237 237 310 94 94 94 94 94 249 249 249 218 54 54 54 54 157 157 157 264
 264 264 264 264 231 231 231 231 237 237 237 237 310 62 94 94 94 94 94 218
 218 218 218 218 218 81 118 118 118 264 264 264 264 264 231 231 231 231 237 237
 237 237 62 62 62 94 194 194 218 218 218 218 218 218 218 118 118 118 118 118
 314 314 314 314 231 231 231 231 237 237 237 237 62 62 62 62 194 194 218 218
 218 218 218 218 218 118 118 118 118 118 314 314 314 314 231 231 231 231 237 237
 67 67 62 62 62 62 156 349 349 218 218 218 218 218 218 118 118 118 118 118
 314 314 314 293 293 231 231 253 253 253 67 67 67 62 62 95 156 349 349 349
 218 218 218 218 291 291 118 118 268 268 180 180 293 293 293 293 253 253 253 253
 67 67 67 67 95 95 95 376 376 349 349 218 291 291 291 291 291 268 268 268
 268 293 293 293 293 293 253 253 253 253 253 67 67 95 95 95 95 376 376 376
 376 291 291 291 291 291 291 268 268 268 268 293 293 293 293 293 253 253 253 253
 253 366 366 95 95 95 95 376 376 376 376 291 291 291 291 291 291 268 268 268
 268 293 293 293 293 293 293 253 253 253 366 366 366 95 95 95 297 376 376 376
 376 291 291 291 291 291 291 268 268 268 204 204 204 293 293 293 293 85 85 85
 366 366 366 366 297 297 297 297 189 189 189 291 291 291 291 291 322 204 204 204
 204 204 204 204 204 85 220 220 220 85 366 366 366 366 297 297 297 297 189 189
 189 189 291 322 322 322 322 322 204 204 204 204 204 204 204 220 220 220 220 366
 366 366 366 366 297 297 297 297 189 189 189 189 322 322 322 303 322 322 204 204
 204 204 204 204 204 204 220 220 220 366 149 149 149 127 127 127 127 127 127 189
 359 359 359 322 303 303 303 320 320 204 204 204 204 348 348 348 86 220 205 205
 149 149 149 127 127 127 127 127 127 359 359 359 359 322 303 303 320 320 320 320
 204 348 348 348 348 348 161 161 205 205 149 149 149 127 127 127 127 127 127 359
 359 359 359 359 320 320 320 320 320 320 204 348 348 348 348 348 161 161 161 273
 149 149 149 127 127 127 127 127 309 309 359 359 359 359 35 320 214 214 320 320
 188 348 348 348 348 348 58 58 58 273 109 109 109 127 127 127 127 127 309 309
 309 359 35 35 35 214 214 214 214 214 188 188 348 348 348 348 58 58 58 58
 109 109 109 109 127 141 141 88 309 309 309 35 35 35 35 178 178 178 178 178
 188 188 286 286 286 286 58 58 58 109 109 109 109 109 109 141 141 88 88 15
 35 35 35 35 35 35 178 178 178 155 155 286 286 286 286 286 286 58 58 109
 109 109 109 109 42 141 141 141 15 15 15 35 35 35 35 35 298 298 155 155
 155 286 286 286 286 286 286 58 129 109 129 109 109 109 42 83 141 141 15 15
 15 35 160 160 160 298 298 298 298 155 155 286 286 286 286 286 286 129 129 129
 129 147 147 83 83 83 83 83 15 15 15 103 160 160 160 368 298 298 155 155
 155 286 286 286 286 286 286 129 129 129 147 147 147 83 83 83 83 83 83 15
 32 32 160 160 160 368 368 298 155 155 155 286 286 286 286 286 304 304 129 129
 147 147 147 147 83 83 83 28 28 28 28 32 32 32 242 242 368 368 368 155
 153 153 153 286 286 304 304 304 304 304 147 147 147 147 83 83 248 28 28 28
 32 32 32 32 242 242 242 275 275 275 153 153 153 153 148 148 304 304 304 304
 295 295 295 295 210 210 248 28 28 28 32 32 32 32 242 242 275 275 275 275
 153 153 153 148 148 148 148 304 304 295 295 295 295 295 94 94 94 94 28 28
 32 32 32 54 54 275 275 275 275 275 264 264 264 148 148 148 148 148 304 295
 295 295 295 295 94 94 94 94 94 249 249 32 54 54 54 54 275 275 275 275
 264 264 264 148 148 148 148 148 148 295 295 295 295 94 94 94 94 94 94 249
 249 54 54 54 54 54 157 157 157 264 264 264 264 264 148 148 148 148 237 237
 237 237 310 94 94 94 94 94 94 249 218 218 54 54 54 54 157 278 278 264
 264 264 264 264 231 231 231 231 237 237 237 237 310 94 94 94 94 94 94 218
 218 218 218 218 218 278 278 278 278 278 264 314 264 264 231 231 231 231 237 237
 237 237 62 62 62 170 170 156 218 218 218 218 218 218 218 218 118 118 118 118
 314 314 314 314 231 231 231 231 231 237 237 271 62 62 62 156 156 156 218 218
 218 218 218 218 218 118 118 118 118 118 314 314 314 314 231 231 231 231 231 237
 67 67 62 62 62 156 156 156 218 218 218 218 218 218 218 218 118 118 118 314
 314 314 314 293 293 231 231 231 253 253 67 67 67 62 95 156 156 156 218 218
 218 218 218 218 218 218 118 118 268 268 314 314 293 293 293 293 253 253 253 253
 67 67 67 95 95 95 376 376 376 376 218 218 218 291 291 291 291 268 268 268
 268 293 293 293 293 293 253 253 253 253 162 67 95 95 95 95 95 376 376 376
 376 291 291 291 291 291 291 268 268 268 268 293 293 293 293 293 253 253 253 253
 162 162 95 95 95 95 95 376 376 376 376 291 291 291 291 291 283 268 268 268
 268 293 293 293 293 293 293 253 253 162 162 366 366 95 95 95 95 376 376 376
 376 291 291 291 291 291 283 283 268 268 204 204 204 293 293 293 220 220 220 162
 366 366 366 366 297 297 297 376 99 99 99 99 291 291 291 291 283 283 204 204
 204 204 204 204 204 220 220 220 220 220 366 366 366 366 297 297 297 297 99 99
 99 99 99 322 322 322 322 322 204 204 204 204 204 204 204 220 220 220 220 220
 366 366 366 366 297 297 297 127 99 99 99 99 99 322 322 303 322 322 204 204
 204 204 204 204 204 220 220 220 220 220 149 149 149 127 127 127 127 127 105 99
 359 359 359 322 303 303 320 320 320 204 204 204 204 348 348 348 220 220 220 220
 149 149 149 127 127 127 127 127 105 341 359 359 359 322 320 320 320 320 320 320
 204 348 348 348 348 348 161 161 161 205 149 149 149 127 127 127 127 127 105 341
 359 359 359 359 320 320 320 320 320 320 188 188 348 348 348 348 161 161 161 273
 149 149 149 127 127 127 127 127 105 341 359 359 35 35 35 320 320 320 320 320
 188 188 188 348 348 348 161 161 161 273 109 109 109 109 127 127 127 127 105 140
 140 35 35 35 35 35 178 178 178 188 188 188 188 188 348 348 58 58 58 109
 109 109 109 109 109 127 141 88 140 140 140 35 35 35 35 178 178 178 178 178
 188 188 188 188 286 286 58 58 58 109 109 109 109 109 42 42 42 140 140 140
 140 35 35 35 35 35 178 178 178 178 188 188 286 286 286 286 286 58 109 109
 109 109 109 109 42 42 42 42 140 140 140 35 35 35 35 35 298 298 298 155
 155 286 286 286 286 286 286 129 129 129 129 109 109 42 42 42 42 42 15 15
 15 35 35 35 35 298 298 298 298 155 155 286 286 286 286 286 286 129 129 129
 129 129 147 42 42 42 42 13 13 15 15 35 35 35 160 298 298 298 298 155
 155 286 286 286 286 286 286 129 129 129 129 147 147 42 42 42 42 42 13 28
 28 32 35 160 160 298 298 298 298 155 155 286 286 286 286 286 286 129 129 129
 147 147 147 42 42 42 42 28 28 28 28 28 28 18 18 166 166 166 77 77
 77 77 61 61 61 304 304 304 304 304 147 147 147 147 42 42 42 28 28 28
 28 28 32 18 18 242 166 166 275 77 77 77 153 61 61 148 304 304 304 304
 295 295 295 210 210 210 210 28 28 28 28 28 32 32 166 166 166 275 275 275
 77 153 61 61 148 148 148 304 304 295 295 295 295 210 210 210 210 28 28 28
 28 28 28 54 54 166 275 275 275 275 264 264 264 148 148 148 148 148 304 295
 295 295 295 210 210 210 94 94 94 249 28 28 54 54 54 54 275 275 275 275
 264 264 264 148 148 148 50 50 50 50 295 295 295 94 94 94 94 94 94 249
 249 54 54 54 54 54 278 278 278 278 264 264 264 264 148 50 50 50 50 50
 237 237 271 94 94 94 94 94 94 218 218 218 54 54 54 278 278 278 278 278
 264 264 264 264 231 231 50 50 50 237 237 271 271 94 94 170 170 170 94 218
 218 218 218 218 218 278 278 278 278 278 278 314 314 332 231 231 231 231 237 237
 271 271 271 271 170 170 170 156 156 218 218 218 218 218 218 278 278 278 278 278
 314 314 314 314 231 231 231 231 231 237 271 271 271 271 156 156 156 156 156 218
 218 218 218 218 218 218 118 278 118 314 314 314 314 314 231 231 231 231 30 271
 271 271 271 271 156 156 156 156 156 218 218 218 218 218 218 218 118 118 324 314
 314 314 314 314 293 231 231 30 30 30 271 271 271 271 156 156 156 156 156 218
 218 218 218 218 218 218 118 118 268 314 314 314 293 293 293 293 30 30 253 253
 67 271 271 95 95 95 312 312 376 376 218 218 218 218 291 291 283 268 268 268
 268 293 293 293 293 293 253 253 253 162 162 162 95 95 95 95 312 312 376 376
 376 218 291 291 291 283 283 283 283 268 268 293 293 293 293 293 253 162 162 162
 162 162 95 95 95 95 312 312 376 376 79 79 291 291 291 283 283 283 283 283
 268 293 293 293 293 293 293 162 162 162 162 162 355 95 95 95 312 312 79 79
 79 79 291 291 291 283 283 283 283 283 204 204 204 293 293 293 220 220 162 162
 162 366 366 254 254 297 297 312 99 99 99 99 99 291 283 283 283 283 283 283
 34 34 34 204 115 220 220 220 220 162 162 366 366 254 254 297 297 99 99 99
 99 99 390 390 390 283 283 283 283 204 34 34 34 204 115 220 220 220 220 220
 162 366 254 254 254 297 105 99 99 99 99 99 99 390 322 185 185 185 185 204
 34 34 34 204 115 220 220 220 220 220 340 340 340 340 127 105 105 105 105 341
 341 359 359 322 185 185 185 185 185 185 204 204 204 348 348 348 220 220 220 220
 340 340 340 340 127 105 105 105 105 341 341 359 359 320 320 320 320 320 320 320
 188 188 188 188 348 348 161 161 161 161 340 340 340 340 127 105 105 105 105 341
 341 341 359 35 320 320 320 320 320 320 188 188 188 188 188 348 161 161 161 161
 340 340 340 340 127 105 105 105 105 341 341 359 35 35 158 320 320 320 320 188
 188 188 188 188 188 188 161 161 161 48 109 109 109 109 127 127 105 105 105 140
 140 35 35 35 35 35 178 178 178 188 188 188 188 188 188 188 161 58 48 109
 109 109 109 109 42 42 105 140 140 140 140 35 35 35 35 178 178 178 178 188
 188 188 188 188 188 188 58 58 109 109 109 109 109 109 42 42 42 140 140 140
 140 35 35 35 35 35 178 178 178 188 188 188 188 188 188 286 286 326 109 109
 109 109 109 42 42 42 42 42 140 140 140 35 35 35 35 35 298 298 298 298
 188 188 286 286 286 286 286 129 129 129 129 109 109 42 42 42 42 42 13 140
 140 35 35 35 35 298 298 298 298 298 155 286 286 286 286 286 286 129 129 129
 129 129 42 42 42 42 42 13 13 13 140 35 35 35 160 298 298 298 298 298
 155 286 286 286 286 286 286 129 129 129 129 129 42 42 42 42 42 13 13 28
 28 28 18 18 18 298 298 298 298 298 78 286 286 286 286 286 286 129 129 129
 358 82 82 42 42 42 42 28 28 28 28 28 18 18 18 166 166 166 77 77
 77 77 61 61 61 61 45 45 358 358 358 82 82 210 210 42 42 28 28 28
 28 28 18 18 18 166 166 166 77 77 77 77 61 61 61 61 61 358 358 358
 358 82 82 210 210 210 210 28 28 28 28 28 18 18 166 166 166 166 166 77
 77 77 61 61 61 61 50 50 358 358 358 72 82 210 210 210 210 28 28 28
 28 28 28 54 166 166 166 166 166 77 77 77 61 61 61 50 50 50 50 50
 72 72 72 210 210 210 210 94 28 28 28 28 54 54 54 166 166 166 166 77
 332 332 61 61 50 50 50 50 50 50 72 72 72 94 94 94 94 94 94 249
 249 54 54 54 54 278 278 278 278 278 332 332 332 332 50 50 50 50 50 50
 271 271 271 94 94 170 94 94 94 218 218 218 54 54 54 278 278 278 278 278
 332 332 332 332 50 50 50 50 50 50 271 271 271 271 170 170 170 156 156 218
 218 218 218 218 218 278 278 278 278 278 332 332 332 332 332 30 30 50 50 50
 271 271 271 271 156 156 156 156 156 218 218 218 218 218 218 278 278 278 278 324
 332 332 332 332 30 30 30 30 30 271 271 271 271 271 156 156 156 156 156 218
 218 218 218 218 218 278 278 278 324 324 324 332 332 332 30 30 30 30 30 271
 271 271 271 271 156 156 156 156 156 218 218 218 218 218 218 218 324 324 324 324
 324 324 314 314 30 30 30 30 30 30 271 271 271 271 156 156 156 156 156 218
 218 218 218 218 218 218 283 324 324 324 324 324 293 293 293 30 30 30 30 30
 271 271 271 271 95 312 312 312 312 312 218 218 218 218 218 283 283 283 283 283
 324 293 293 293 293 241 30 30 30 162 162 355 355 95 95 312 312 312 312 312
 376 218 291 291 283 283 283 283 283 283 283 293 293 293 293 241 162 162 162 162
 162 355 355 95 95 312 312 312 312 79 79 79 291 283 283 283 283 283 283 283
 283 293 293 293 293 241 162 162 162 162 162 355 355 254 254 312 312 312 79 79
 79 79 390 283 283 283 283 283 283 283 283 34 34 115 115 115 162 162 162 162
 162 355 254 254 254 254 312 99 99 99 99 99 390 390 283 283 283 283 283 283
 34 34 34 115 115 115 115 162 162 162 162 355 254 254 254 254 99 99 99 99
 99 99 390 390 390 283 283 283 283 283 34 34 34 115 115 115 115 220 220 162
 162 254 254 254 254 254 105 99 99 99 99 99 390 390 390 185 185 185 185 185
 34 34 34 115 115 115 115 220 220 162 340 340 340 254 254 105 105 105 105 341
 341 341 390 390 185 185 185 185 185 185 34 34 34 188 115 115 356 220 220 162
 340 340 340 340 105 105 105 105 105 341 341 341 341 158 158 185 185 185 185 185
 188 188 188 188 188 356 161 161 48 48 340 340 340 340 105 105 105 105 105 341
 341 341 341 158 158 158 320 320 320 188 188 188 188 188 188 188 161 161 48 48
 340 340 340 340 105 105 105 105 105 341 341 341 158 158 158 158 320 320 320 188
 188 188 188 188 188 188 161 161 48 48 48 340 340 340 42 105 105 105 105 140
 140 35 35 35 158 158 178 178 188 188 188 188 188 188 188 188 161 48 48 48
 109 109 109 109 42 42 42 140 140 140 140 140 35 35 35 178 178 178 178 188
 188 188 188 188 188 188 326 326 48 109 109 109 109 42 42 42 42 140 140 140
 140 140 35 35 35 178 178 178 178 188 188 188 188 188 188 188 326 326 326 109
 109 109 109 42 42 42 42 42 140 140 140 140 35 35 35 35 298 298 298 188
 188 188 188 188 286 286 326 326 129 129 129 109 42 42 42 42 42 42 42 140
 140 140 35 35 35 298 298 298 298 298 78 78 286 286 286 286 286 129 129 129
 129 129 42 42 42 42 42 42 13 13 140 18 18 18 18 298 298 298 298 78
 78 78 78 286 286 45 45 129 129 129 129 129 42 42 42 42 42 42 28 28
 28 18 18 18 18 18 298 298 298 78 78 78 78 61 45 45 45 45 129 129
 358 82 82 82 42 42 42 28 28 28 28 18 18 18 18 166 166 166 77 77
 77 77 61 61 61 45 45 45 358 358 358 82 82 82 210 210 28 28 28 28
 28 28 18 18 18 166 166 166 77 77 77 77 61 61 61 61 45 358 358 358
 358 82 82 82 210 210 210 28 28 28 28 28 18 18 166 166 166 166 166 77
 77 77 61 61 61 61 61 358 358 358 358 72 82 210 210 210 210 28 28 28
 28 28 339 339 166 166 166 166 166 77 77 61 61 61 61 50 50 50 50 50
 72 72 72 72 210 210 210 210 28 28 28 339 339 339 339 339 166 166 166 183
 332 332 61 61 61 50 50 50 50 50 72 72 72 72 210 94 94 94 391 391
 391 339 339 339 339 339 278 278 278 332 332 332 332 332 50 50 50 50 50 50
 72 72 72 72 94 170 94 94 391 391 391 339 339 339 339 278 278 278 278 332
 332 332 332 332 332 50 50 50 50 50 271 271 271 271 156 156 156 156 391 391
 391 334 334 339 339 278 278 278 278 332 332 332 332 332 332 30 30 30 50 50
 271 271 271 271 156 156 156 156 156 391 334 334 334 334 334 278 278 278 324 324
 332 332 332 332 332 30 30 30 30 271 271 271 271 271 156 156 156 156 156 334
 334 334 334 334 218 274 278 324 324 324 324 332 332 332 30 30 30 30 30 271
 271 271 271 271 156 156 156 156 156 156 334 334 334 334 334 274 324 324 324 324
 324 324 332 332 30 30 30 30 30 30 271 271 271 271 156 156 156 156 156 156
 334 334 334 334 334 274 283 324 324 324 324 324 241 241 241 30 30 30 30 30
 271 271 271 271 156 156 312 312 312 312 334 334 334 334 283 283 283 283 283 283
 324 324 241 241 241 241 30 30 30 30 355 355 355 355 312 312 312 312 312 312
 312 334 334 283 283 283 283 283 283 283 283 283 241 241 241 241 241 30 162 162
 355 355 355 355 254 312 312 312 312 79 79 79 79 283 283 283 283 283 283 283
 283 283 241 241 241 241 241 162 162 162 355 355 355 254 254 254 312 312 79 79
 79 79 390 283 283 283 283 283 283 283 283 283 34 115 115 115 115 162 162 162
 355 355 254 254 254 254 254 312 99 99 99 99 390 390 390 283 283 283 283 283
 283 34 34 115 115 115 115 115 162 162 169 169 254 254 254 254 254 99 99 99
 99 99 390 390 390 283 283 283 283 283 34 34 34 115 115 115 115 115 162 162
 169 169 254 254 254 254 254 99 99 99 99 99 390 390 390 390 185 185 185 283
 34 34 34 115 115 115 115 115 281 162 340 340 254 254 254 254 105 105 105 341
 341 52 390 390 390 185 185 185 185 185 188 34 34 115 356 356 356 356 281 162
 340 340 340 254 254 105 105 105 105 341 341 341 158 158 158 158 185 185 185 188
 188 188 188 188 356 356 356 356 48 48 340 340 340 340 105 105 105 105 105 341
 341 341 158 158 158 158 158 320 320 188 188 188 188 188 188 356 356 48 48 48
 48 340 340 340 105 105 105 105 105 341 341 341 158 158 158 158 158 320 188 188
 188 188 188 188 188 188 225 48 48 48 48 340 375 42 42 105 105 105 105 140
 140 140 35 158 158 158 158 178 188 188 188 188 188 188 188 188 326 326 48 48
 375 375 375 42 42 42 42 140 140 140 140 140 35 35 158 158 178 178 188 188
 188 188 188 188 188 188 326 326 326 48 375 375 375 42 42 42 42 140 140 140
 140 140 35 35 35 178 178 178 178 188 188 188 188 188 188 326 326 326 326 326
 375 375 375 42 42 42 42 42 140 140 140 140 35 35 243 243 243 298 298 188
 188 188 188 188 188 326 326 326 326 129 375 375 42 42 42 42 42 42 42 140
 140 140 18 18 243 243 298 298 78 78 78 78 78 97 45 45 45 326 129 129
 129 129 42 42 42 42 42 42 42 140 140 18 18 18 18 18 298 298 78 78
 78 78 78 78 45 45 45 45 129 129 129 217 42 42 42 42 42 42 28 28
 28 18 18 18 18 18 18 78 78 78 78 78 78 61 45 45 45 45 45 129
 358 82 82 82 82 182 182 182 182 28 28 18 18 18 18 165 166 166 78 77
 77 77 61 61 61 45 45 45 358 358 358 82 82 82 210 182 182 182 182 182
 28 28 18 18 165 166 166 166 77 77 77 77 61 61 61 61 45 45 358 358
 358 82 82 82 210 182 182 182 182 182 182 28 339 165 165 166 166 166 166 77
 77 77 61 61 61 61 45 358 358 358 72 72 72 210 210 210 182 182 182 182
 182 339 339 339 339 166 166 166 166 183 183 61 61 61 61 50 50 50 50 358
 72 72 72 72 210 210 210 182 182 182 339 339 339 339 339 339 339 166 183 183
 183 61 61 61 61 50 50 50 50 50 72 72 72 72 72 111 216 391 391 391
 391 339 339 339 339 339 339 183 183 183 332 332 332 332 332 50 50 50 50 50
 72 72 72 111 111 111 216 391 391 391 391 339 339 339 339 339 278 278 183 332
 332 332 332 332 332 50 50 50 50 50 271 271 271 271 111 156 156 156 391 391
 391 334 339 339 339 339 278 278 324 332 332 332 332 332 332 30 30 30 30 50
 271 271 271 271 271 156 156 156 391 391 334 334 334 334 339 274 278 324 324 324
 332 332 332 332 332 30 30 30 30 271 271 271 271 271 156 156 156 156 156 334
 334 334 334 334 334 274 274 324 324 324 324 332 332 332 332 30 30 30 30 30
 271 271 271 271 156 156 156 156 156 334 334 334 334 334 334 274 274 274 324 324
 324 324 332 332 30 30 30 30 30 30 271 271 271 271 271 156 156 156 156 156
 334 334 334 334 334 274 274 274 324 324 324 324 241 241 241 30 30 30 30 30
 336 336 336 271 47 47 47 312 312 312 334 334 334 334 334 283 283 283 283 283
 324 241 241 241 241 241 30 30 30 30 260 355 355 355 47 47 312 312 312 312
 312 300 300 300 283 283 283 283 283 283 66 66 241 241 241 241 241 260 260 260
 355 355 355 355 355 47 312 312 312 79 52 52 300 300 283 283 283 283 283 283
 66 66 66 241 241 241 241 260 260 260 355 355 355 254 254 254 312 312 79 79
 52 52 390 300 283 283 283 283 283 283 66 66 66 115 115 115 115 260 260 260
 355 355 254 254 254 254 254 31 99 52 52 52 390 390 390 283 283 283 283 283
 66 66 66 115 115 115 115 115 260 260 169 169 254 254 254 254 254 99 99 99
 52 52 390 390 390 283 283 283 283 283 257 257 257 115 115 115 115 115 281 281
 169 169 254 254 254 137 137 99 99 52 52 52 390 390 390 390 283 283 283 283
 257 257 257 115 115 115 115 115 281 281 75 75 75 254 137 137 105 105 100 100
 52 52 52 390 390 390 185 185 185 257 257 257 257 257 356 356 356 115 281 281
 75 75 75 75 136 136 105 105 105 341 341 52 52 158 158 158 185 185 185 188
 188 188 188 188 356 356 356 356 48 48 48 75 75 75 136 136 105 105 105 341
 341 341 158 158 158 158 158 320 320 188 188 188 188 188 356 225 356 48 48 48
 48 75 340 113 136 136 105 105 105 341 341 255 158 158 158 158 158 158 188 188
 188 188 188 188 225 225 225 225 48 48 48 375 375 375 136 136 105 105 105 140
 140 255 158 158 158 158 158 158 188 188 188 188 188 188 225 225 225 326 48 48
 375 375 375 375 42 42 42 140 140 140 140 140 255 158 158 158 158 178 188 188
 188 188 188 188 225 225 326 326 326 48 375 375 375 375 42 42 42 42 140 140
 140 140 243 243 243 243 243 262 262 262 188 188 188 188 326 326 326 326 326 326
 375 375 375 375 42 42 42 42 140 140 140 140 243 243 243 243 243 243 262 262
 188 188 188 97 45 326 326 326 326 326 217 375 375 42 42 42 42 42 42 140
 140 140 243 243 243 243 243 78 78 78 78 78 78 97 45 45 45 326 217 217
 217 217 217 42 42 42 42 42 42 28 244 18 18 18 18 243 243 78 78 78
 78 78 78 97 45 45 45 45 217 217 217 217 217 42 42 42 42 182 182 28
 244 18 18 18 18 18 243 78 78 78 78 78 78 97 45 45 45 45 217 217
 217 217 114 114 182 182 182 182 182 244 244 244 18 18 165 165 165 96 78 78
 78 78 61 97 61 45 45 45 217 217 114 114 114 114 182 182 343 182 182 182
 244 244 18 165 165 165 165 96 96 77 77 233 61 61 61 61 45 45 358 358
 114 114 114 114 182 182 182 182 182 182 182 182 339 165 165 165 165 96 96 77
 77 233 61 61 61 61 45 358 358 358 114 72 114 111 111 182 182 182 182 182
 182 339 339 339 339 165 165 96 96 183 183 61 61 61 61 50 50 50 50 358
 72 72 111 111 111 111 182 182 182 182 339 339 339 339 339 339 339 96 183 183
 183 183 61 39 39 50 50 50 50 50 72 72 111 111 111 111 216 182 182 391
 339 339 339 339 339 339 339 339 183 183 183 332 332 39 39 50 50 50 50 50
 72 72 111 111 111 111 216 216 216 391 391 339 339 339 339 339 339 183 183 183
 332 332 332 39 39 50 50 50 50 50 271 271 271 111 111 111 216 216 216 391
 391 339 339 339 339 339 339 278 324 332 332 332 332 332 332 30 30 30 30 50
 271 271 271 271 111 156 216 216 391 391 334 334 334 339 339 274 274 274 324 324
 332 332 332 332 332 30 30 30 30 271 271 271 271 271 271 156 156 156 156 334
 334 334 334 334 339 274 274 274 324 324 324 332 332 332 30 30 30 30 30 271
 271 271 271 271 271 156 156 156 156 334 334 334 334 334 334 274 274 274 274 324
 324 324 332 332 30 30 30 30 30 30 336 336 336 336 47 47 47 47 156 334
 334 334 334 334 274 274 274 274 274 324 363 363 241 241 241 30 30 30 30 30