# vtk DataFile Version 2.0
Data set from IO Version 6.4.197.9a0dee2
ASCII

DATASET RECTILINEAR_GRID
DIMENSIONS 31 31 31
X_COORDINATES 31 float
-4.700000 4.700000 14.099999 23.500000 32.899998 42.299999 51.699997 61.099995 70.500000 79.900002 89.300003 98.699997 108.099998 117.500000 126.899994 136.300003 145.699997 155.099991 164.500000 173.899994 183.300003 
192.699997 202.099991 211.500000 220.899994 230.299988 239.699997 249.099991 258.499969 267.899963 277.299988 
Y_COORDINATES 31 float
-4.700000 4.700000 14.099999 23.500000 32.899998 42.299999 51.699997 61.099995 70.500000 79.900002 89.300003 98.699997 108.099998 117.500000 126.899994 136.300003 145.699997 155.099991 164.500000 173.899994 183.300003 
192.699997 202.099991 211.500000 220.899994 230.299988 239.699997 249.099991 258.499969 267.899963 277.299988 
Z_COORDINATES 31 float
-4.700000 4.700000 14.099999 23.500000 32.899998 42.299999 51.699997 61.099995 70.500000 79.900002 89.300003 98.699997 108.099998 117.500000 126.899994 136.300003 145.699997 155.099991 164.500000 173.899994 183.300003 
192.699997 202.099991 211.500000 220.899994 230.299988 239.699997 249.099991 258.499969 267.899963 277.299988 
CELL_DATA 27000
SCALARS FeatureIds int 1
LOOKUP_TABLE default
 68 68 68 68 273 273 111 111 111 283 283 283 356 356 356 356 30 30 30 30
 30 135 135 135 238 238 238 240 240 68 68 68 68 68 111 111 111 111 111 111
 283 283 356 356 356 356 294 294 294 30 30 135 390 390 238 238 238 195 195 68
 68 68 68 154 154 111 111 111 111 16 16 16 356 356 356 356 294 294 294 294
 212 390 390 390 390 238 169 169 195 195 186 186 186 154 154 154 154 154 16 16
 16 16 139 356 356 356 404 404 404 404 388 390 390 390 390 238 169 169 169 195
 186 186 186 154 154 154 154 154 154 16 16 16 139 139 139 404 404 404 404 404
 388 388 388 390 390 169 169 169 169 186 186 186 186 154 154 154 154 154 154 154
 381 139 139 139 139 404 404 404 404 404 388 388 388 366 366 366 366 366 169 186
 186 186 186 154 154 154 154 154 154 154 381 381 139 139 139 404 404 404 404 404
 388 388 388 366 366 366 366 366 366 186 186 186 186 186 154 154 154 154 154 154
 381 381 381 139 139 367 367 367 367 367 47 47 47 366 366 366 366 366 366 186
 186 186 186 186 154 154 154 103 103 381 381 381 381 333 333 367 367 367 367 367
 47 47 47 366 366 366 366 366 7 7 7 186 186 186 154 154 103 103 103 381
 381 381 333 333 333 367 367 367 367 367 47 47 47 47 366 366 366 7 7 7
 7 7 186 186 154 154 103 103 103 192 192 333 333 333 333 333 367 367 367 367
 47 47 47 47 366 366 366 7 7 7 7 7 186 52 307 307 103 103 192 192
 192 333 333 333 333 333 333 333 367 367 202 202 202 202 61 61 61 7 7 7
 7 7 52 52 307 393 393 393 91 91 91 91 333 333 333 333 333 333 333 202
 202 202 202 202 61 61 61 7 7 7 7 52 52 52 52 393 393 393 393 91
 91 341 333 333 333 333 333 333 333 202 202 202 202 202 61 61 61 61 7 7
 7 52 52 52 52 393 393 393 380 380 380 392 392 333 333 333 29 29 29 202
 202 202 202 202 61 61 61 61 7 7 164 52 52 52 52 393 393 393 380 380
 392 392 392 213 213 213 29 29 29 29 202 202 202 202 61 61 61 112 112 112
 164 164 164 52 52 393 393 267 84 84 392 392 392 213 213 213 213 29 29 29
 202 202 292 292 235 235 112 112 112 112 164 164 164 164 191 267 267 267 84 84
 84 392 392 213 213 213 213 29 29 29 29 202 292 292 235 235 112 112 112 112
 197 164 164 164 191 267 267 267 84 84 84 93 93 213 213 213 56 56 56 56
 194 194 97 97 97 235 112 112 112 197 197 197 164 267 267 267 267 267 84 84
 84 93 93 213 213 56 56 56 56 56 194 194 194 97 97 235 112 112 197 197
 138 138 138 267 267 267 267 184 184 184 184 93 93 93 71 56 56 56 56 194
 194 194 194 123 123 123 318 318 138 138 138 138 138 19 267 267 184 184 184 184
 184 184 184 71 71 71 56 56 56 194 194 194 194 123 123 123 318 318 138 138
 138 138 19 19 19 19 184 184 184 184 184 184 71 71 71 71 71 72 72 72
 194 194 194 123 123 123 318 318 318 138 138 222 19 19 19 19 184 184 184 184
 184 184 71 71 71 71 71 72 72 72 72 194 194 194 24 24 318 318 318 318
 145 145 145 19 19 19 184 184 184 184 283 283 71 71 71 71 71 72 72 72
 72 194 24 24 24 24 240 240 318 318 145 145 145 145 19 399 283 283 283 283
 283 283 283 71 71 71 363 363 363 72 72 24 24 24 24 240 240 240 240 145
 145 145 145 145 399 399 399 283 283 283 283 283 249 249 71 363 363 363 363 363
 72 24 24 24 24 240 240 240 240 240 145 145 145 145 399 399 273 283 283 283
 283 249 249 249 363 363 363 363 30 30 30 135 135 135 240 240 240 240 240 240
 145 145 145 145 273 273 273 283 283 283 283 283 249 249 30 30 30 30 30 30
 30 135 135 135 135 240 240 240 240 240 68 68 68 145 273 273 273 283 283 283
 283 283 249 356 356 30 30 30 30 30 30 135 135 135 135 240 240 240 240 68
 68 68 68 68 111 111 111 111 111 283 283 283 356 356 356 356 356 294 294 212
 212 212 212 135 238 238 238 240 240 68 68 68 68 68 111 111 111 111 111 111
 283 283 356 356 356 356 294 294 294 212 212 212 212 390 238 238 238 195 195 68
 68 68 68 68 111 111 111 111 111 16 16 16 356 356 356 356 294 294 294 212
 212 212 212 390 238 238 169 169 169 195 186 186 186 154 154 154 154 154 16 16
 16 16 356 356 356 356 404 404 404 404 212 212 212 390 390 238 169 169 169 169
 186 186 186 154 154 154 154 154 16 16 16 139 139 139 139 404 404 404 404 404
 388 388 388 390 390 169 169 169 169 186 186 186 186 186 154 154 154 154 154 16
 381 139 139 139 139 404 404 404 404 404 388 388 388 388 366 366 366 169 186 186
 186 186 186 186 154 154 154 154 154 381 381 381 139 139 139 404 404 404 404 404
 388 388 388 366 366 366 366 366 186 186 186 186 186 186 12 12 154 154 154 381
 381 381 381 139 139 404 404 404 404 404 47 47 47 366 366 366 366 366 186 186
 186 186 186 186 12 12 103 103 103 381 381 381 381 333 333 333 367 367 367 47
 47 47 47 47 366 366 366 7 7 7 7 186 186 186 154 154 103 103 103 192
 381 381 333 333 333 333 333 367 367 47 47 47 47 47 366 366 7 7 7 7
 7 7 186 186 186 154 103 103 103 192 192 192 333 333 333 333 333 333 367 47
 47 47 47 47 47 316 316 7 7 7 7 7 7 307 307 307 103 192 192 192
 192 192 333 333 333 333 333 333 333 202 202 202 202 202 61 61 61 7 7 7
 7 7 307 307 307 307 393 192 192 192 91 91 333 333 333 333 333 333 333 202
 202 202 202 202 61 61 61 7 7 7 7 7 307 307 307 307 393 192 192 91
 91 91 333 333 333 333 333 333 333 202 202 202 202 202 61 61 61 61 7 7
 7 52 307 307 307 393 393 393 192 91 91 392 392 333 333 333 333 29 29 202
 202 202 202 202 61 61 61 61 7 7 43 52 52 52 52 393 393 393 380 380
 392 392 392 392 213 213 29 29 29 202 202 202 202 202 61 61 61 61 112 43
 164 164 164 52 52 267 267 267 84 84 392 392 392 213 213 213 213 29 29 29
 202 202 202 97 235 235 235 112 112 112 197 197 164 302 191 267 267 267 84 99
 99 392 392 213 213 213 213 29 29 56 202 202 97 97 235 235 235 112 112 197
 197 197 164 302 191 267 267 267 84 99 99 99 93 213 213 56 56 56 56 56
 194 194 97 97 235 235 235 112 197 197 197 197 197 267 267 267 267 267 184 184
 184 93 93 213 213 56 56 56 56 56 194 194 194 97 97 235 235 112 197 197
 138 138 138 267 267 267 267 184 184 184 184 184 184 71 71 56 56 56 56 56
 194 194 123 123 123 123 318 138 138 138 138 138 222 222 19 267 184 184 184 184
 184 184 184 71 71 71 71 56 56 72 194 194 123 123 123 123 318 138 138 138
 138 222 19 19 19 19 184 184 184 184 184 184 71 71 71 71 71 71 72 72
 72 194 123 123 123 123 318 138 138 138 222 222 19 19 19 19 184 184 184 184
 184 184 71 71 71 71 71 71 72 72 72 72 194 24 24 24 318 138 138 138
 222 222 19 19 19 19 184 184 184 283 283 283 71 71 71 71 71 71 72 72
 72 72 24 24 24 24 240 240 240 222 145 145 145 145 399 399 399 283 283 283
 283 283 283 71 71 71 363 363 363 72 72 24 24 24 24 240 240 240 240 240
 145 145 145 145 399 399 399 283 283 283 283 249 249 71 363 363 363 363 363 363
 63 24 24 24 24 240 240 240 240 240 145 145 145 145 399 399 399 283 283 283
 283 249 249 249 363 363 363 363 363 363 63 63 24 24 240 240 240 240 240 240
 240 145 145 145 399 399 399 283 283 283 283 249 249 249 363 363 363 363 363 363
 63 135 135 135 240 240 240 240 240 240 68 68 68 145 273 273 273 283 283 283
 283 283 249 356 356 356 30 30 30 30 30 135 135 135 135 240 240 240 240 240
 68 68 68 68 111 111 111 111 111 283 283 283 356 356 356 356 356 294 234 212
 212 212 212 212 238 238 240 240 240 240 68 68 68 111 111 111 111 111 111 111
 283 356 356 356 356 356 356 294 294 212 212 212 212 212 238 238 238 240 240 68
 186 186 186 111 111 111 111 111 111 16 16 16 356 356 356 356 356 294 294 212
 212 212 212 212 238 238 169 169 169 169 186 186 186 186 154 154 154 111 16 16
 16 16 356 356 356 356 404 404 404 404 212 212 212 212 238 238 169 169 169 169
 186 186 186 186 154 154 154 154 16 16 16 16 139 139 139 404 404 404 404 404
 388 388 388 212 238 169 169 169 169 186 186 186 186 186 12 12 12 12 154 16
 381 381 139 139 139 404 404 404 404 404 388 388 388 388 403 403 169 169 169 186
 186 186 186 186 12 12 12 12 381 381 381 381 381 139 139 404 404 404 404 404
 388 388 388 388 403 403 403 403 186 186 186 186 186 186 12 12 12 12 381 381
 381 381 381 381 139 404 404 404 404 404 47 47 47 47 403 403 403 403 186 186
 186 186 186 186 12 12 12 103 103 381 381 381 381 333 333 333 333 367 367 47
 47 47 47 47 403 403 403 7 7 7 7 186 186 186 12 12 103 103 103 192
 381 381 381 333 333 333 333 333 367 47 47 47 47 47 21 21 316 316 7 7
 7 7 186 186 12 12 103 103 192 192 192 192 333 333 333 333 333 333 333 47
 47 47 47 47 21 316 316 316 7 7 7 7 7 307 307 307 103 192 192 192
 192 192 333 333 333 333 333 333 333 202 202 202 202 202 61 61 316 316 7 7
 7 7 307 307 307 307 307 192 192 192 192 192 333 333 333 333 333 333 333 202
 202 202 202 202 61 61 61 7 7 7 7 7 307 307 307 307 229 192 192 192
 91 91 333 333 333 333 333 333 333 202 202 202 202 202 61 61 61 61 7 7
 7 7 307 307 307 229 229 192 192 91 91 91 392 333 333 333 333 333 333 202
 202 202 202 202 61 61 61 61 7 7 43 43 302 229 229 229 229 229 192 91
 392 392 392 392 333 333 333 29 29 202 202 202 202 202 61 61 61 61 43 43
 43 43 302 302 302 229 229 229 229 392 392 392 392 213 213 213 213 29 29 29
 202 202 202 97 235 235 235 235 43 43 43 43 302 302 302 229 267 267 99 99
 99 99 392 213 213 213 56 56 56 56 202 202 97 97 235 235 235 235 43 43
 197 197 302 302 302 267 267 267 99 99 99 99 99 213 213 56 56 56 56 56
 56 194 97 97 235 235 235 235 197 197 197 197 302 302 302 267 267 267 184 99
 99 99 99 71 56 56 56 56 56 56 194 194 194 97 97 235 235 197 197 197
 138 138 222 222 267 267 267 184 184 184 184 184 71 71 71 71 56 56 56 56
 194 194 123 123 123 123 138 138 138 138 138 222 222 222 222 184 184 184 184 184
 184 184 71 71 71 71 71 56 56 72 72 194 123 123 123 123 123 138 138 138
 222 222 222 19 19 19 184 184 184 184 184 184 71 71 71 71 71 71 72 72
 72 72 123 123 123 123 123 138 138 138 222 222 222 19 19 19 184 184 184 184
 184 184 71 71 71 71 71 71 72 72 72 72 24 24 24 24 240 222 222 222
 222 222 222 19 19 19 184 184 184 283 283 283 71 71 71 71 71 71 72 72
 72 72 24 24 24 24 240 240 240 222 222 222 222 222 19 399 283 283 283 283
 283 283 71 71 71 71 71 298 298 72 72 24 24 24 24 240 240 240 240 240
 145 145 145 145 399 399 399 283 283 283 283 283 249 71 71 363 363 363 363 363
 63 63 24 24 24 240 240 240 240 240 240 145 145 145 399 399 399 283 283 283
 283 249 249 249 363 363 363 363 363 363 63 63 63 24 240 240 240 240 240 240
 240 145 145 399 399 399 399 283 283 283 283 283 283 283 363 363 363 363 363 363
 63 63 63 63 240 240 240 240 240 240 240 68 68 399 399 273 273 283 283 283
 283 283 283 356 356 356 363 363 234 212 63 63 63 135 240 240 240 240 240 240
 68 68 68 106 106 106 111 111 111 283 283 283 356 356 356 356 234 234 234 212
 212 212 212 212 238 238 240 240 240 240 68 68 68 111 111 111 111 111 111 111
 283 356 356 356 356 356 356 234 234 212 212 212 212 212 238 238 238 240 240 240
 186 186 186 186 106 106 111 106 111 16 16 16 356 356 356 356 356 140 294 212
 212 212 212 212 238 238 169 169 169 169 186 186 186 186 12 106 106 106 16 16
 16 16 356 356 356 356 356 140 404 404 212 212 212 212 212 238 169 169 169 169
 186 186 186 186 12 12 12 12 16 16 16 381 139 139 285 285 404 404 404 404
 115 115 115 115 115 169 169 169 169 186 186 186 186 186 12 12 12 12 12 381
 381 381 381 285 285 285 404 404 404 404 115 115 115 115 403 403 403 169 186 186
 186 186 186 12 12 12 12 12 12 381 381 381 381 285 285 285 404 404 404 404
 115 115 115 403 403 403 403 403 186 186 186 186 186 12 12 12 12 12 381 381
 381 381 381 381 285 285 404 216 216 3 3 3 3 403 403 403 403 403 403 186
 186 186 186 12 12 12 12 12 103 381 381 381 381 333 333 333 333 216 216 3
 3 3 3 3 403 403 403 316 7 7 7 186 186 12 12 12 12 192 192 192
 192 381 333 333 333 333 333 333 216 3 3 3 3 3 21 21 316 316 7 7
 7 7 186 186 12 12 103 192 192 192 192 192 333 333 333 333 333 333 333 3
 3 3 3 3 21 21 316 316 316 7 7 7 7 307 307 307 192 192 192 192
 192 192 333 333 333 333 333 333 333 202 202 202 202 202 61 316 316 316 7 7
 7 7 307 307 307 307 229 192 192 192 192 192 333 333 333 333 333 333 333 202
 202 202 202 202 61 61 170 170 7 7 7 7 307 307 229 229 229 192 192 192
 192 192 333 333 333 333 333 333 333 202 202 202 202 202 61 61 61 61 7 7
 7 43 229 229 229 229 229 229 192 192 192 91 333 333 333 333 333 333 333 202
 202 202 202 395 61 61 61 61 7 7 43 43 229 229 229 229 229 229 229 192
 392 392 392 333 333 333 333 50 50 50 202 202 202 395 395 396 396 396 43 43
 43 43 302 302 229 229 229 229 229 99 392 392 392 213 213 213 50 50 50 50
 202 202 395 395 396 396 396 396 43 43 43 43 302 302 302 229 229 229 99 99
 99 99 392 213 213 56 56 50 50 50 50 202 396 396 396 396 396 396 43 43
 43 43 302 302 302 229 229 267 99 99 99 99 99 99 56 56 56 56 56 56
 56 300 300 396 396 396 396 396 43 43 197 197 302 302 302 267 267 184 184 99
 99 99 99 71 56 56 56 56 56 56 56 300 300 300 396 396 396 396 197 197
 138 222 222 222 286 267 267 184 184 184 184 184 71 71 71 71 56 56 56 163
 163 194 123 123 123 123 138 138 138 138 222 222 222 222 222 184 184 184 184 184
 184 184 71 71 71 71 71 71 39 163 72 194 123 123 123 123 123 138 138 138
 222 222 222 222 222 222 184 184 184 184 184 184 71 71 71 71 71 71 39 72
 72 72 123 123 123 36 36 36 138 222 222 222 222 222 222 222 184 184 184 184
 184 184 71 71 71 71 71 71 39 72 72 72 24 24 24 36 36 36 222 222
 222 222 222 222 222 222 262 184 184 283 283 287 287 71 71 71 71 298 298 72
 72 72 24 24 24 36 36 240 222 222 222 222 222 222 222 399 283 283 283 283
 283 283 287 287 71 71 298 298 298 72 63 63 63 24 24 240 240 240 240 222
 222 222 222 222 399 399 399 283 283 283 283 283 287 287 287 71 298 298 298 63
 63 63 63 63 24 240 240 240 240 240 240 145 145 145 399 399 399 283 283 283
 283 283 283 287 287 363 363 363 363 63 63 63 63 63 240 240 240 240 240 240
 240 145 145 399 399 399 399 283 283 283 283 283 283 283 356 363 363 234 234 63
 63 63 63 63 240 240 240 240 240 240 240 68 68 399 399 106 106 283 283 283
 283 283 283 356 356 356 234 234 234 234 212 63 63 63 240 240 240 240 240 240
 193 193 193 106 106 106 106 106 106 106 355 355 352 352 352 352 234 234 234 212
 212 212 212 212 382 382 382 240 240 240 193 193 193 106 106 106 106 106 106 106
 106 106 356 356 356 356 356 234 234 212 212 212 212 212 212 382 382 240 240 240
 247 247 247 106 106 106 106 106 106 106 355 355 356 356 356 356 140 140 140 140
 212 212 212 212 212 382 382 382 169 169 186 247 186 186 106 106 106 106 106 16
 16 16 285 285 285 285 140 140 140 140 115 115 212 212 212 382 382 169 169 169
 186 186 186 186 12 12 12 106 106 256 256 381 285 285 285 285 285 140 140 115
 115 115 115 115 115 382 169 169 252 186 186 186 186 186 12 12 12 12 12 256
 381 381 285 285 285 285 285 285 216 115 115 115 115 115 115 403 403 403 252 186
 186 186 186 12 12 12 12 12 12 381 381 381 381 285 285 285 285 216 216 216
 115 115 115 115 403 403 403 403 252 186 186 186 186 12 12 12 12 12 12 381
 381 381 381 285 285 285 216 216 216 216 3 3 3 3 403 403 403 403 252 186
 186 186 186 12 12 12 12 12 9 9 381 381 381 381 333 333 216 216 216 216
 3 3 3 3 403 403 403 316 7 7 7 186 186 12 353 353 353 192 9 9
 9 192 333 333 333 333 333 216 216 3 3 3 3 3 21 21 316 316 316 7
 7 7 186 12 353 353 353 192 192 192 192 192 333 333 333 333 333 333 216 3
 3 3 3 3 21 21 316 316 316 7 7 7 7 307 353 353 353 192 192 192
 192 192 333 333 333 333 333 333 333 3 3 3 3 3 296 296 170 170 7 7
 7 7 7 229 229 229 229 192 192 192 192 192 333 333 333 333 333 333 333 202
 202 202 202 202 61 170 170 170 7 7 7 7 229 229 229 229 229 229 192 192
 192 192 333 333 333 333 333 333 333 202 202 202 202 395 395 395 170 170 7 7
 43 229 229 229 229 229 229 229 229 192 156 156 156 333 333 333 333 333 333 202
 202 202 395 395 395 395 61 170 43 43 43 43 229 229 229 229 229 229 229 156
 156 156 156 330 330 330 333 50 50 50 202 202 395 395 395 396 396 396 43 43
 43 43 302 229 229 229 229 229 229 156 156 156 156 330 330 330 50 50 50 50
 50 395 395 395 396 396 396 396 43 43 43 43 302 302 229 229 229 229 229 99
 156 156 156 34 330 330 50 50 50 50 50 300 300 396 396 396 396 396 43 43
 43 43 302 302 302 229 229 229 2 99 99 99 99 34 34 56 199 199 199 50
 300 300 300 300 396 396 396 396 43 43 203 203 302 286 302 229 229 184 184 99
 99 99 99 71 71 56 199 199 199 163 163 300 300 300 396 396 396 396 203 203
 203 203 286 286 286 286 267 184 184 184 184 184 71 71 71 71 71 199 163 163
 163 300 300 206 206 396 396 203 203 203 222 222 286 286 286 286 184 184 184 184
 184 184 71 71 71 71 39 39 163 163 163 163 206 206 206 36 36 203 203 203
 222 222 222 222 286 286 184 184 184 184 184 184 71 71 71 71 39 39 39 163
 163 163 206 206 36 36 36 36 203 222 222 222 222 222 222 222 262 184 184 184
 184 287 287 71 71 71 39 39 39 39 163 72 206 36 36 36 36 36 222 222
 222 222 222 222 222 262 262 262 262 283 287 287 287 287 287 71 39 39 39 39
 39 349 349 36 36 36 36 36 222 222 222 222 222 222 222 262 262 262 262 283
 283 287 287 287 287 71 298 298 298 39 349 349 349 349 36 36 36 36 240 222
 222 222 222 222 222 262 262 262 262 283 283 287 287 287 287 287 298 298 298 63
 63 63 349 349 349 240 240 240 240 240 240 145 145 222 399 262 262 283 283 283
 283 283 287 287 287 287 363 363 363 63 63 63 349 349 349 240 240 240 240 240
 240 193 193 346 346 346 106 283 283 283 283 283 287 287 352 352 234 234 234 63
 63 63 63 349 349 240 240 240 240 240 240 193 193 346 346 106 106 106 283 283
 283 283 283 352 352 352 234 234 234 234 212 212 63 349 349 240 240 240 240 240
 193 193 193 193 106 106 106 106 106 355 355 355 352 352 352 352 352 234 234 212
 212 212 212 212 382 382 382 382 382 193 193 193 193 193 106 106 106 106 106 355
 355 355 352 352 352 352 352 140 234 212 212 212 212 212 382 382 382 382 382 193
 247 247 247 247 106 106 106 106 106 106 355 355 352 352 356 356 140 140 140 140
 212 212 212 212 382 382 382 382 382 382 247 247 247 247 106 106 106 106 106 106
 355 355 285 285 285 285 140 140 140 115 115 115 115 212 382 382 382 382 252 252
 247 247 247 247 12 12 106 106 106 256 256 256 256 285 285 285 285 140 140 115
 115 115 115 115 115 382 382 252 252 252 252 186 186 186 12 12 12 12 256 256
 256 256 256 285 285 285 285 285 216 115 115 115 115 115 115 403 403 252 252 252
 252 252 186 12 12 12 12 12 12 256 256 256 256 285 285 285 285 216 216 216
 115 115 115 115 403 403 403 252 252 252 252 186 186 12 12 12 12 12 9 9
 256 256 256 285 285 285 216 216 216 216 3 3 3 3 403 403 403 252 252 252
 252 186 186 12 353 353 353 12 9 9 9 381 381 327 327 327 216 216 216 216
 3 3 3 3 403 403 403 316 252 252 7 186 186 12 353 130 353 353 9 9
 9 192 333 333 327 327 216 216 216 216 3 3 3 3 296 296 296 316 316 7
 7 7 186 353 353 353 353 192 9 9 9 192 333 333 333 333 333 216 216 3
 3 3 3 3 296 296 296 296 316 7 15 15 15 353 353 353 353 192 192 192
 192 192 333 333 333 333 333 5 5 3 3 3 3 3 296 296 296 296 7 7
 15 15 229 229 229 229 229 192 192 192 192 192 333 333 333 333 333 333 333 3
 202 202 202 3 296 296 170 170 7 7 15 15 229 229 229 229 229 229 192 192
 156 156 156 330 330 333 333 333 333 202 202 202 395 395 395 395 170 170 170 159
 43 229 229 229 229 229 229 229 229 156 156 156 156 330 330 330 330 333 50 202
 202 202 395 395 395 395 254 254 254 43 43 43 229 229 229 229 229 229 229 156
 156 156 156 330 330 330 330 50 50 50 202 395 395 395 395 395 396 254 254 43
 43 43 229 229 229 229 229 229 229 156 156 156 156 330 330 330 330 50 50 50
 50 395 395 395 396 396 396 396 43 43 43 43 229 229 229 229 229 229 229 156
 156 156 156 34 34 34 34 50 50 50 300 300 300 396 396 396 396 396 43 43
 43 43 302 229 229 229 229 229 2 2 2 156 156 34 34 34 34 199 199 199
 300 300 300 300 396 396 396 396 43 43 203 203 286 286 286 229 229 2 2 2
 2 2 156 34 34 34 199 199 199 163 300 300 300 300 300 396 396 396 203 203
 203 203 286 286 286 286 289 2 2 2 2 2 2 71 71 39 39 199 163 163
 163 300 300 206 206 396 396 203 203 203 203 203 286 286 286 286 286 2 2 2
 2 2 71 71 71 39 39 39 163 163 163 163 206 206 206 36 36 203 203 203
 203 222 286 286 286 286 286 184 184 82 82 82 71 71 71 39 39 39 39 163
 163 163 206 206 36 36 36 36 203 203 222 222 222 222 222 222 262 262 82 82
 82 287 287 287 71 39 39 39 39 39 163 163 206 36 36 36 36 36 36 222
 222 222 222 222 222 262 262 262 262 82 82 287 287 287 287 39 39 39 39 39
 39 349 349 36 36 36 36 36 36 222 222 222 222 222 222 262 262 262 262 82
 82 287 287 287 287 287 39 39 39 39 349 349 349 349 36 36 36 36 36 222
 222 222 222 222 262 262 262 262 262 283 82 287 287 287 287 287 39 39 39 349
 349 349 349 349 349 81 81 81 81 81 35 35 35 222 346 346 262 262 283 283
 283 287 287 287 287 287 352 39 39 349 349 349 349 349 349 81 81 81 81 81
 193 193 193 346 346 346 346 106 283 283 283 272 287 352 352 352 352 234 234 349
 349 349 349 349 349 81 81 81 81 81 193 193 193 346 346 346 106 106 106 283
 272 272 352 352 352 352 352 234 234 234 212 212 349 349 349 81 81 81 81 81
 193 193 193 346 346 346 106 106 106 355 355 355 355 352 352 352 352 352 234 351
 212 212 212 382 382 382 382 382 382 193 193 193 193 193 346 106 106 106 106 355
 355 355 355 352 352 352 352 352 140 351 212 212 212 382 382 382 382 382 382 193
 247 247 247 247 106 106 106 106 106 355 355 355 355 352 352 352 140 140 140 140
 115 212 212 382 382 382 382 382 382 382 247 247 247 247 106 106 106 106 106 355
 355 355 355 285 285 285 140 140 140 115 115 115 115 382 382 382 382 382 252 252
 247 247 247 247 247 106 106 106 168 168 256 256 256 285 285 285 285 140 140 115
 115 115 115 115 382 382 382 252 252 252 252 252 247 247 12 12 201 168 168 168
 256 256 256 285 285 285 285 285 216 115 115 115 115 115 115 207 252 252 252 252
 252 252 252 12 12 12 12 12 168 256 256 256 256 285 285 285 285 216 216 216
 115 115 115 115 207 207 252 252 252 252 252 79 79 12 12 12 12 12 9 9
 256 256 256 285 285 285 216 216 216 216 216 3 3 3 207 207 252 252 252 252
 252 79 79 12 353 353 353 353 9 9 9 256 327 327 327 327 216 216 216 216
 3 3 3 3 3 296 296 252 252 252 125 125 79 353 353 353 353 353 9 9
 9 9 327 327 327 327 327 216 216 216 3 3 3 3 296 296 296 296 252 125
 125 15 15 353 353 353 353 251 9 9 9 192 327 327 327 327 327 5 5 3
 3 3 3 3 296 296 296 296 296 125 15 15 15 353 353 353 251 251 251 192
 192 192 333 333 333 327 5 5 5 5 3 3 3 3 296 296 296 296 296 15
 15 15 15 229 229 229 229 251 251 156 156 156 156 333 333 333 5 5 5 5
 3 3 3 3 296 296 296 296 159 15 159 15 229 229 229 229 229 229 156 156
 156 156 156 330 330 330 330 5 5 148 148 395 395 395 395 395 254 254 159 159
 159 229 229 229 229 229 229 229 156 156 156 156 156 330 330 330 330 330 148 148
 148 395 395 395 395 395 254 254 254 159 43 229 229 229 229 229 229 229 156 156
 156 156 156 330 330 330 330 330 50 148 148 395 395 395 395 395 254 254 254 254
 43 43 229 229 229 229 229 229 156 156 156 156 156 330 330 330 34 348 348 348
 300 395 395 395 395 396 396 254 254 254 43 43 229 229 229 229 229 229 2 2
 156 156 156 34 34 34 34 348 348 348 300 300 300 300 396 396 396 396 254 203
 203 203 203 229 229 229 229 2 2 2 2 156 156 34 34 34 34 348 348 348
 300 300 300 300 396 396 396 396 203 203 203 203 203 286 289 289 289 2 2 2
 2 2 156 34 34 34 34 199 199 163 300 300 300 300 300 396 396 203 203 203
 203 203 203 286 286 289 289 2 2 2 2 2 2 317 34 34 39 39 163 163
 163 300 300 300 300 396 396 203 203 203 203 203 286 286 286 286 289 2 2 2
 2 2 317 317 71 39 39 39 163 163 163 300 206 206 206 36 36 203 203 203
 203 203 286 286 286 286 289 82 82 82 82 82 287 71 71 39 39 39 39 163
 163 378 206 206 36 36 36 36 203 203 203 222 222 222 286 286 262 82 82 82
 82 82 287 287 287 39 39 39 39 39 163 378 206 36 36 36 36 36 203 203
 35 35 222 222 222 262 262 262 262 82 82 82 287 287 287 39 39 39 39 39
 39 349 349 36 36 36 36 36 36 222 35 35 35 35 66 262 262 262 262 82
 82 82 287 287 287 287 39 39 39 39 349 349 349 349 36 36 36 81 81 81
 35 35 35 35 66 262 262 262 262 82 82 287 287 287 287 287 39 39 39 349
 349 349 349 349 349 81 81 81 81 81 35 35 35 35 346 346 346 262 262 272
 272 272 287 287 287 287 352 39 39 349 349 349 349 349 349 81 81 81 81 81
 193 193 193 346 346 346 346 346 106 272 272 272 272 352 352 352 352 352 241 349
 349 349 349 349 349 81 81 81 81 81 193 193 193 346 346 346 346 106 106 355
 272 272 272 352 352 352 352 352 234 234 349 349 349 349 382 382 382 81 81 81
 193 193 193 346 346 346 346 106 106 355 355 355 355 352 352 352 352 351 351 351
 351 351 382 382 382 382 382 382 382 193 193 193 193 346 346 346 106 106 355 355
 355 355 355 352 352 352 134 351 351 351 351 351 382 382 382 382 382 382 382 193
 247 247 247 247 346 106 106 106 106 355 355 355 355 352 134 134 134 351 351 351
 351 342 382 382 382 382 382 382 382 247 247 247 247 247 247 106 106 106 106 355
 355 355 355 285 285 285 140 140 140 351 342 342 342 382 382 382 382 382 382 247
 247 247 247 247 247 201 201 106 168 168 168 256 256 285 285 285 285 140 140 342
 342 342 342 342 382 382 382 252 252 252 252 252 334 334 334 201 201 201 168 168
 168 256 256 285 285 285 285 285 216 115 342 342 342 115 207 207 252 252 252 252
 252 252 334 334 201 201 201 168 168 168 256 256 256 285 285 285 285 216 216 216
 115 115 115 207 207 207 207 252 252 252 252 79 79 79 12 12 12 344 344 9
 256 256 256 327 327 327 216 216 216 216 216 3 3 207 207 207 207 252 252 252
 79 79 79 79 353 353 344 344 344 344 9 116 327 327 327 327 327 216 216 216
 3 3 3 3 207 207 207 252 252 252 125 125 79 79 353 344 344 344 344 344
 116 116 116 327 327 327 327 216 216 216 3 3 3 3 3 296 296 296 252 125
 125 125 79 79 353 344 344 251 344 344 9 116 327 327 327 327 327 5 5 5
 3 3 3 3 296 296 296 296 296 125 15 15 15 15 353 251 251 251 251 344
 344 156 156 327 327 327 5 5 5 5 3 3 3 3 296 296 296 296 296 15
 15 15 15 229 229 229 251 251 251 156 156 156 156 156 330 5 5 5 5 5
 148 3 3 395 395 296 332 332 159 159 159 15 15 229 229 229 229 229 156 156
 156 156 156 156 330 330 330 5 5 148 148 148 395 395 395 395 332 332 159 159
 159 15 229 229 229 229 229 229 156 156 156 156 156 156 330 330 330 5 148 148
 148 148 395 395 395 395 254 254 254 159 159 26 229 229 229 229 229 229 156 156
 156 156 156 156 330 330 330 348 148 148 148 148 395 395 395 254 254 254 254 254
 26 26 229 229 229 229 229 229 156 156 156 156 156 156 34 34 34 348 348 148
 148 300 300 395 395 396 254 254 254 254 203 203 229 229 229 229 229 229 2 2
 156 156 156 34 34 34 34 348 348 348 300 300 300 300 396 396 396 254 254 203
 203 203 203 229 229 289 289 2 2 2 2 156 317 34 34 34 348 348 348 348
 300 300 300 300 300 396 396 396 203 203 203 203 203 203 289 289 289 2 2 2
 2 2 317 317 317 34 348 348 348 348 300 300 300 300 300 396 396 203 203 203
 203 203 203 286 289 289 289 2 2 2 2 2 317 317 317 317 348 39 163 163
 300 300 300 300 300 396 219 203 203 203 203 203 203 286 289 289 289 2 2 2
 2 317 317 317 317 39 39 39 39 163 378 378 300 300 300 36 219 219 203 203
 203 203 203 286 286 289 289 82 82 82 82 82 317 317 317 39 39 39 39 163
 378 378 378 206 36 36 219 219 203 203 203 203 222 66 66 66 262 82 82 82
 82 82 287 287 287 39 39 39 39 39 378 378 378 36 36 36 36 36 203 203
 35 35 66 66 66 66 262 262 82 82 82 82 287 287 287 39 39 39 39 39
 378 73 349 36 36 36 36 36 36 203 35 35 66 66 66 66 262 262 82 82
 82 82 287 287 287 287 39 39 39 39 349 73 349 349 36 36 81 81 81 35
 35 35 35 66 66 346 262 162 262 82 82 82 287 287 287 287 241 241 241 349
 349 349 349 349 349 81 81 81 81 81 35 35 66 66 346 346 346 162 162 272
 272 272 287 287 287 241 241 241 241 241 349 349 349 349 81 81 81 81 81 81
 193 193 193 346 346 346 346 162 162 272 272 272 272 352 352 352 352 241 241 241
 349 349 349 349 81 81 81 81 81 81 193 193 193 346 346 346 346 162 162 272
 272 272 272 352 352 352 352 352 241 351 349 349 349 382 382 382 382 81 81 81
 193 193 260 260 346 346 162 162 162 319 319 355 134 134 134 134 134 351 351 351
 351 351 239 239 382 382 382 382 382 347 347 193 260 260 346 137 137 137 137 319
 319 319 134 134 134 134 134 351 351 351 351 351 239 239 382 382 382 382 347 347
 247 247 247 260 346 137 137 137 137 319 319 355 134 134 134 134 134 351 351 351
 351 342 239 239 382 382 382 382 347 347 247 247 247 247 83 201 137 137 137 319
 319 355 134 134 134 134 134 351 351 351 342 342 342 342 382 382 382 382 252 252
 334 334 334 334 201 201 201 201 168 168 168 256 268 285 285 285 285 117 117 342
 342 342 342 342 382 382 382 252 252 252 252 334 334 334 334 201 201 201 168 168
 168 256 268 268 285 285 285 117 117 117 342 342 342 342 207 207 207 252 252 252
 252 334 334 334 201 201 201 201 168 168 168 256 268 268 268 285 285 216 216 117
 117 280 280 207 207 207 207 252 252 252 252 79 79 79 201 201 201 344 344 344
 256 256 268 268 268 327 216 216 216 216 257 257 257 207 207 207 207 252 252 252
 79 79 79 79 344 344 344 344 344 344 116 116 268 268 327 327 327 158 158 216
 257 257 257 257 207 207 207 252 252 252 125 125 79 79 344 344 344 344 344 344
 116 116 116 327 327 327 327 158 158 257 257 257 257 257 208 208 208 208 208 125
 125 125 79 79 344 344 344 344 344 344 116 116 116 327 327 327 327 158 5 257
 257 257 257 257 257 208 208 208 208 125 15 15 15 26 344 344 344 344 344 344
 116 116 305 305 305 305 5 5 5 5 257 257 257 257 257 332 332 332 332 125
 15 15 26 26 344 344 344 344 344 156 156 156 156 305 305 305 5 5 5 148
 148 148 257 257 332 332 332 332 332 159 159 26 26 26 229 229 229 229 156 156
 156 156 156 156 305 305 305 5 148 148 148 148 148 395 395 332 332 332 332 159
 26 26 26 229 229 229 229 229 156 156 156 156 156 156 330 330 264 264 148 148
 148 148 395 395 395 332 332 332 332 159 26 26 26 229 229 229 229 156 156 156