# vtk DataFile Version 2.0
Data set from IO Version 6.4.197.9a0dee2
ASCII

DATASET RECTILINEAR_GRID
DIMENSIONS 31 31 31
X_COORDINATES 31 float
-4.700000 4.700000 14.099999 23.500000 32.899998 42.299999 51.699997 61.099995 70.500000 79.900002 89.300003 98.699997 108.099998 117.500000 126.899994 136.300003 145.699997 155.099991 164.500000 173.899994 183.300003 
192.699997 202.099991 211.500000 220.899994 230.299988 239.699997 249.099991 258.499969 267.899963 277.299988 
Y_COORDINATES 31 float
-4.700000 4.700000 14.099999 23.500000 32.899998 42.299999 51.699997 61.099995 70.500000 79.900002 89.300003 98.699997 108.099998 117.500000 126.899994 136.300003 145.699997 155.099991 164.500000 173.899994 183.300003 
192.699997 202.099991 211.500000 220.899994 230.299988 239.699997 249.099991 258.499969 267.899963 277.299988 
Z_COORDINATES 31 float
-4.700000 4.700000 14.099999 23.500000 32.899998 42.299999 51.699997 61.099995 70.500000 79.900002 89.300003 98.699997 108.099998 117.500000 126.899994 136.300003 145.699997 155.099991 164.500000 173.899994 183.300003 
192.699997 202.099991 211.500000 220.899994 230.299988 239.699997 249.099991 258.499969 267.899963 277.299988 
CELL_DATA 27000
SCALARS FeatureIds int 1
LOOKUP_TABLE default
 238 238 238 114 114 114 114 178 178 178 178 178 213 213 213 213 185 185 185 185
 146 146 146 146 142 193 193 193 193 238 238 238 63 114 114 114 114 114 178 178
 178 176 176 176 134 134 185 185 4 4 4 146 142 142 142 193 193 193 193 238
 63 63 63 114 114 114 114 114 327 327 327 176 176 134 134 134 247 247 4 4
 4 146 142 142 142 193 193 193 193 193 63 63 63 114 114 114 114 327 327 327
 327 176 176 134 134 134 247 247 4 4 4 4 142 142 387 387 387 193 193 193
 63 9 9 9 114 298 298 327 327 327 327 176 68 134 134 134 247 247 247 4
 4 340 340 387 387 387 387 387 387 387 9 9 9 9 9 9 298 298 327 327
 327 68 68 68 68 68 247 247 247 4 4 340 387 387 107 107 387 387 387 387
 9 9 9 9 9 9 298 298 327 133 133 133 68 68 68 68 247 247 247 349
 349 349 349 387 387 387 387 387 387 387 302 9 9 9 9 9 298 298 133 133
 133 82 68 68 68 68 75 141 141 349 349 349 349 349 387 387 387 387 316 316
 302 302 302 9 9 9 53 124 124 133 82 82 82 82 68 75 75 75 141 349
 349 349 349 349 392 392 392 392 316 316 302 302 302 9 9 9 53 124 124 124
 82 82 82 82 82 75 75 75 141 349 349 349 349 349 392 392 392 392 316 316
 316 302 302 302 9 53 53 124 124 124 82 82 82 82 126 126 126 75 75 349
 349 349 349 349 392 392 392 392 316 316 316 302 174 174 174 336 53 124 124 267
 82 82 82 246 246 126 126 126 75 349 349 349 349 349 392 392 392 392 316 316
 174 174 174 174 174 299 299 267 267 267 267 267 246 246 246 246 246 126 75 49
 349 349 349 349 74 392 74 74 253 253 174 174 174 174 174 299 299 267 267 267
 267 267 246 246 246 246 246 49 49 49 161 161 161 161 74 74 74 74 253 253
 353 174 174 174 174 299 299 267 267 267 267 267 246 246 246 246 49 49 49 49
 161 161 161 161 74 74 74 74 353 353 353 353 174 174 174 267 267 267 267 267
 267 267 246 246 246 246 49 49 49 49 161 161 161 194 74 74 74 74 353 353
 353 353 353 174 61 61 61 61 267 267 267 267 295 230 230 230 49 49 49 49
 161 161 194 194 194 74 74 271 271 353 353 353 353 353 61 61 61 61 61 267
 295 295 295 230 230 230 191 191 49 49 161 161 194 194 194 18 18 271 271 271
 271 320 320 320 61 61 61 61 61 295 295 295 295 295 230 191 191 191 191 245
 245 194 194 194 194 18 18 271 271 271 34 34 34 34 34 61 61 61 61 295
 295 295 295 295 230 191 191 191 191 245 245 194 194 194 194 192 192 192 271 271
 34 34 34 34 34 61 61 61 101 101 295 295 295 295 191 191 191 191 191 191
 245 194 194 194 192 192 192 192 260 34 34 34 34 34 34 50 50 50 101 101
 101 295 295 295 138 138 202 202 202 202 202 282 282 192 192 192 192 192 34 34
 34 34 34 34 34 50 50 50 101 101 321 321 321 138 138 138 202 202 202 202
 202 282 282 192 192 192 192 192 34 34 34 34 347 347 347 50 50 50 321 321
 321 321 321 138 138 138 202 202 202 202 202 282 365 365 365 365 365 365 159 159
 159 347 347 347 347 347 50 50 321 321 321 321 321 138 138 138 202 202 202 202
 202 249 365 365 365 365 365 365 159 159 347 347 347 347 347 347 347 45 45 45
 45 321 73 73 138 138 202 202 202 202 249 249 365 365 365 365 365 365 21 21
 347 347 347 347 347 347 347 45 45 45 45 45 73 73 73 73 202 202 202 202
 249 249 249 365 365 365 365 21 21 21 218 218 347 347 347 347 347 45 45 45
 45 45 73 73 73 73 185 185 185 249 249 249 249 30 30 365 21 21 21 21
 238 218 347 347 347 347 178 178 178 178 178 178 73 73 213 213 185 185 185 185
 249 249 249 30 30 21 21 21 21 238 238 238 238 114 114 114 114 178 178 178
 178 178 73 213 213 213 185 185 185 185 249 146 146 146 146 21 21 193 193 238
 238 238 238 114 114 114 114 178 178 178 178 178 176 176 176 185 185 185 185 185
 146 146 146 146 146 193 193 193 193 238 238 63 63 114 114 114 114 114 178 178
 178 176 176 176 176 247 247 247 247 247 146 146 146 146 146 193 193 193 193 238
 63 63 63 114 114 114 114 114 327 327 176 176 176 176 176 247 247 247 247 247
 4 340 340 340 142 193 193 193 193 193 63 63 63 114 114 114 114 298 327 327
 176 176 176 176 134 247 247 247 247 247 4 340 340 340 340 193 193 193 193 193
 63 63 63 114 114 298 298 298 298 327 327 176 68 68 68 247 247 247 247 247
 247 340 340 340 107 107 107 107 193 193 63 9 9 11 9 298 298 298 298 327
 327 68 68 68 68 68 247 247 247 247 247 340 340 107 107 107 107 107 107 107
 302 9 11 11 11 298 298 298 298 133 133 68 68 68 68 68 247 247 247 141
 141 140 140 107 107 107 107 107 107 302 302 302 11 11 11 11 298 298 133 133
 133 82 68 68 68 68 141 141 141 141 141 140 140 392 392 392 392 392 316 302
 302 302 302 11 11 11 124 124 124 133 82 82 82 82 82 141 141 141 141 141
 141 349 349 392 392 392 392 392 316 302 302 302 302 302 11 124 124 124 124 124
 82 82 82 82 82 126 126 126 141 141 141 349 349 392 392 392 392 392 316 302
 302 302 302 302 302 124 124 124 124 124 82 82 82 82 126 126 126 126 141 141
 141 349 349 392 392 392 392 392 316 302 253 302 174 174 336 336 336 336 124 124
 82 82 82 82 126 126 126 126 141 141 141 349 349 392 392 392 392 392 253 253
 253 174 174 174 336 336 336 336 336 267 267 267 246 246 246 246 126 126 141 141
 141 161 161 161 392 392 392 253 253 253 253 174 174 174 174 299 299 336 267 267
 267 267 246 246 246 246 246 37 49 49 161 161 161 161 74 74 74 74 253 253
 174 174 174 174 174 299 299 267 267 267 267 267 246 246 246 246 37 37 49 49
 161 161 161 161 74 74 74 74 253 253 353 174 174 174 174 336 267 267 267 267
 267 267 246 246 246 246 37 37 49 49 161 161 161 194 74 74 74 74 271 271
 271 353 353 174 174 61 61 267 267 267 267 295 295 295 230 37 37 37 49 49
 161 161 194 194 194 74 74 271 271 271 271 320 320 320 320 61 61 61 267 267
 295 295 295 295 230 191 191 191 191 245 161 161 194 194 194 194 74 271 271 271
 271 320 320 320 320 61 363 363 363 295 295 295 295 295 230 191 191 191 191 245
 245 245 194 194 194 194 74 271 271 271 320 320 320 320 320 61 363 363 363 295
 295 295 295 295 295 191 191 191 191 245 245 245 194 194 194 192 192 192 271 271
 34 34 34 34 34 363 363 363 101 101 295 295 295 295 295 191 191 191 191 245
 245 245 194 194 192 192 192 192 260 34 34 34 34 34 34 50 50 50 101 101
 101 295 295 295 138 138 202 202 202 202 282 282 282 282 192 192 192 192 34 34
 34 34 34 347 347 50 50 50 101 101 101 321 321 138 138 138 202 202 202 202
 282 282 282 282 365 192 192 192 34 34 34 34 347 347 347 50 50 50 321 321
 321 321 138 138 138 138 202 202 202 202 282 282 282 365 365 365 365 365 34 34
 242 347 347 347 347 347 50 50 45 45 45 321 321 138 138 138 202 202 202 202
 282 282 365 365 365 365 365 365 365 242 242 347 347 347 347 347 347 45 45 45
 45 45 73 73 138 138 202 202 202 202 202 249 365 365 365 365 365 365 242 242
 242 218 347 347 347 347 347 45 45 45 45 45 73 73 73 138 202 202 202 202
 249 249 365 365 365 365 365 365 242 242 218 218 218 347 347 104 104 45 45 45
 45 45 73 73 73 185 185 185 185 185 249 249 365 365 365 365 365 21 21 242
 218 218 218 347 347 104 104 178 178 178 178 178 73 73 73 185 185 185 185 185
 249 146 146 146 365 365 21 21 21 238 238 238 218 114 114 114 114 178 178 178
 178 178 73 213 213 185 185 185 185 185 185 146 146 146 146 193 193 193 193 238
 238 238 114 114 114 114 114 178 178 178 178 178 176 176 185 185 185 185 185 247
 146 146 146 146 146 193 193 193 193 238 63 63 63 114 114 114 114 114 178 178
 178 176 176 176 176 247 247 247 247 247 247 146 146 146 146 193 193 193 193 193
 63 63 63 114 114 114 114 114 178 178 176 176 176 176 176 247 247 247 247 247
 247 340 340 340 340 193 193 193 193 193 63 63 63 114 114 114 114 298 298 327
 176 176 176 176 176 247 247 247 247 247 247 340 340 340 340 193 193 193 193 193
 63 63 63 11 114 298 298 298 298 327 176 176 176 176 68 247 247 247 247 247
 247 340 340 340 107 107 107 193 193 48 11 11 11 11 11 298 298 298 298 327
 133 68 68 68 68 247 247 247 247 247 247 340 340 340 107 107 107 107 107 48
 11 11 11 11 11 11 298 298 298 133 133 133 68 68 68 247 247 247 247 141
 140 140 140 140 107 107 107 107 107 48 302 11 11 11 11 11 298 298 133 133
 133 82 68 68 68 247 247 141 141 141 141 140 140 140 392 392 392 392 392 302
 302 302 11 11 11 11 11 124 124 133 82 82 82 82 97 141 141 141 141 141
 141 140 140 140 392 392 392 392 392 302 302 302 302 11 11 11 124 124 124 124
 82 82 82 82 97 126 126 141 141 141 141 141 141 392 392 392 392 392 392 302
 302 302 302 302 11 336 124 124 124 124 82 82 82 82 126 126 126 126 141 141
 141 141 141 392 392 392 392 392 253 302 253 253 174 174 336 336 336 336 336 336
 82 82 82 82 126 126 126 126 141 141 141 141 141 392 392 392 392 253 253 253
 253 253 174 174 336 336 336 336 336 267 267 267 246 246 246 246 126 126 141 141
 141 141 161 161 392 392 74 253 253 253 253 174 174 174 336 336 336 336 336 267
 267 267 246 246 246 246 37 37 37 37 161 161 161 161 74 74 74 74 253 253
 253 174 174 174 336 336 336 336 267 267 267 267 246 246 246 246 37 37 37 37
 161 161 161 161 74 74 74 74 253 253 353 174 174 174 336 336 336 267 267 267
 267 267 246 246 246 37 37 37 37 37 161 161 161 194 74 74 74 74 271 271
 271 320 320 320 336 336 267 267 267 267 267 295 295 295 246 37 37 37 37 37
 161 161 194 194 194 74 74 243 271 271 271 320 320 320 320 61 267 267 267 267
 295 295 295 295 295 37 37 37 37 37 161 161 194 194 194 194 243 243 271 271
 320 320 320 320 320 12 12 363 295 295 295 295 295 157 157 191 191 191 191 245
 245 194 194 194 194 194 243 243 271 271 320 320 320 320 320 12 12 363 363 295
 295 295 295 157 157 191 191 191 191 245 245 245 194 194 194 194 192 243 271 271
 320 320 320 320 320 12 12 363 101 101 295 295 295 157 157 191 191 191 191 191
 245 282 282 194 192 192 192 192 260 34 34 34 34 34 34 50 50 50 101 101
 101 295 295 157 157 202 202 202 202 202 282 282 282 282 192 192 192 192 34 34
 34 34 34 347 347 50 50 50 101 101 101 295 295 138 138 138 202 202 202 202
 282 282 282 282 365 365 365 284 284 34 34 347 347 347 347 50 50 50 101 101
 101 321 138 138 138 138 202 202 202 202 282 282 282 282 365 365 365 284 284 34
 242 347 347 347 347 347 50 50 45 45 45 45 138 138 138 138 202 202 202 202
 282 282 282 365 365 365 365 365 242 242 242 347 347 347 347 347 347 45 45 45
 45 45 73 73 138 202 202 202 202 202 202 57 57 57 365 365 365 365 242 242
 242 347 347 347 347 347 104 45 45 45 45 45 73 73 73 202 202 202 202 202
 57 57 57 57 365 365 365 365 242 242 218 218 347 347 347 104 104 104 45 45
 45 45 73 73 73 73 185 185 185 185 57 57 57 57 365 365 365 365 242 242
 218 218 218 347 347 104 104 104 178 178 178 178 73 73 73 185 185 185 185 185
 185 146 146 146 365 365 193 193 193 238 238 238 114 114 114 114 114 178 178 178
 178 178 73 73 73 185 185 185 185 185 185 146 146 146 146 193 193 193 193 238
 98 98 114 114 114 114 114 178 178 178 178 178 176 176 247 247 247 247 247 247
 247 146 146 146 146 193 193 193 193 98 98 63 63 114 114 114 114 114 178 178
 178 176 176 176 176 247 247 247 247 247 247 146 146 146 193 193 193 193 193 98
 63 63 63 114 114 114 114 114 114 178 176 176 176 176 176 247 247 247 247 247
 247 340 340 340 340 193 193 193 193 98 63 63 63 114 114 114 114 114 324 338
 176 176 176 176 176 247 247 247 247 247 247 340 340 340 340 193 193 193 193 98
 48 63 63 11 114 114 298 298 338 338 338 176 176 176 247 247 247 247 247 247
 247 340 340 340 340 107 107 193 48 48 48 11 11 11 11 298 298 298 338 338
 338 338 68 68 68 247 247 247 247 247 247 340 340 340 340 107 107 107 48 48
 11 11 11 11 11 11 298 298 338 338 338 338 68 68 68 247 247 247 247 141
 140 140 140 140 107 107 107 107 48 48 11 11 11 11 11 11 11 298 205 205
 205 82 97 97 97 247 141 141 141 141 141 140 140 140 190 392 72 72 72 48
 302 11 11 11 11 11 11 205 205 205 205 82 97 97 97 141 141 141 141 141
 141 140 140 140 190 392 72 72 72 72 302 302 11 11 11 166 166 205 205 205
 205 82 97 97 97 97 141 141 141 141 141 141 190 190 190 392 72 72 72 72
 302 302 302 11 11 166 205 205 205 205 205 82 97 97 97 196 196 141 141 141
 141 141 190 190 190 392 72 72 72 72 253 253 174 336 336 336 336 336 336 205
 205 82 97 97 97 196 196 196 141 141 141 141 190 190 190 392 72 72 253 253
 253 253 174 336 336 336 336 336 336 267 267 267 246 246 246 196 196 196 196 141
 181 181 181 181 190 392 74 253 253 253 253 253 174 336 336 336 336 336 336 267
 267 267 246 246 246 37 37 37 37 37 181 181 181 181 74 74 74 253 253 253
 253 235 174 174 336 336 336 336 267 267 267 267 246 246 246 37 37 37 37 37
 161 161 161 161 74 74 74 74 253 253 253 235 174 336 336 336 336 336 267 267
 267 267 246 246 37 37 37 37 37 37 161 161 161 194 74 74 74 74 291 291
 271 320 320 320 336 336 336 267 267 267 267 267 295 295 37 37 37 37 37 37
 161 161 194 194 194 74 74 243 291 291 271 320 320 320 320 12 12 12 267 267
 295 295 295 295 37 37 37 37 37 37 161 161 194 194 194 194 243 243 243 291
 320 320 320 320 320 12 12 12 12 295 295 295 295 157 157 191 191 191 191 245
 245 194 194 194 194 194 243 243 271 271 320 320 320 320 12 12 12 12 12 295
 295 295 157 157 157 191 191 191 191 245 245 282 194 194 194 139 139 243 271 271
 320 320 320 320 12 12 12 12 12 295 295 295 157 157 157 191 191 191 191 191
 282 282 282 139 139 139 139 139 139 34 32 32 32 32 220 220 220 220 220 101
 101 295 157 157 157 202 202 202 202 282 282 282 282 282 139 139 139 284 284 284
 34 32 34 347 220 220 220 220 220 220 101 295 223 223 138 202 202 202 202 282
 282 282 282 282 139 139 284 284 284 284 34 347 347 347 347 220 220 220 220 220
 346 346 223 223 138 202 202 202 202 282 282 282 282 282 365 365 284 284 284 284
 242 347 347 347 347 220 220 220 220 220 346 346 223 223 138 202 202 202 202 202
 282 282 282 57 365 365 365 284 284 242 242 347 347 347 347 347 220 220 45 45
 45 45 73 73 138 202 202 202 202 202 282 57 57 57 57 365 365 365 242 242
 242 347 347 347 347 347 104 45 45 45 45 45 73 73 73 202 202 202 202 57
 57 57 57 57 57 365 365 365 242 242 218 347 347 347 347 104 104 104 45 45
 45 45 73 73 73 73 185 185 185 266 57 57 57 57 57 365 365 365 242 242
 113 218 347 347 347 104 104 104 178 178 178 178 73 73 73 185 185 185 185 185
 164 57 57 57 57 365 193 193 193 242 238 113 113 114 114 114 114 178 178 178
 178 178 73 73 73 185 185 185 185 185 185 146 146 146 146 193 193 193 193 238
 98 113 113 114 114 114 114 178 178 178 178 41 41 41 247 247 247 247 247 247
 247 146 146 149 149 193 193 193 98 98 98 98 113 114 114 114 114 114 324 182
 182 41 41 41 41 247 247 247 247 247 247 340 340 340 149 193 193 193 98 98
 98 98 63 114 114 114 324 324 324 324 176 41 41 41 41 247 247 247 247 247
 247 340 340 340 340 193 193 193 98 98 98 63 63 114 114 114 324 324 324 338
 338 41 41 41 41 247 247 247 247 247 247 340 340 340 340 66 66 193 98 98
 48 48 48 11 114 324 324 324 338 338 338 338 41 41 41 247 247 247 247 247
 247 340 340 340 66 66 66 66 48 48 48 48 11 11 11 11 298 338 338 338
 338 338 41 41 41 247 247 102 247 247 247 340 340 340 66 66 66 66 48 48
 48 48 11 11 11 11 11 338 338 338 338 338 97 68 247 247 247 102 247 141
 140 140 140 140 66 66 66 66 48 48 48 11 11 11 11 11 11 205 205 205
 205 205 97 97 97 247 247 141 141 141 141 140 140 190 190 190 72 72 72 48
 48 11 11 11 11 166 166 205 205 205 205 205 97 97 97 97 385 141 141 141
 141 141 190 190 190 190 72 72 72 72 302 302 11 11 166 166 166 205 205 205
 205 205 97 97 97 97 385 141 141 141 141 141 190 190 190 190 72 72 72 72
 302 302 302 11 166 166 166 205 205 205 205 205 97 97 97 196 196 196 141 141
 141 141 190 190 190 190 72 72 72 72 253 235 235 336 336 336 336 336 205 205
 205 205 97 97 97 196 196 196 196 141 141 181 190 190 190 190 72 72 72 253
 253 235 235 336 336 336 336 336 336 205 205 205 97 97 196 196 196 196 196 196
 181 181 181 190 190 190 72 72 253 253 235 235 235 336 336 336 336 336 336 267
 267 267 246 246 37 37 37 37 37 181 181 181 181 181 74 74 74 253 253 253
 235 235 235 235 336 336 336 336 336 267 267 267 246 246 246 37 37 37 37 37
 181 181 181 181 74 74 74 24 24 235 235 235 235 336 336 336 336 336 267 267
 267 267 246 246 37 37 37 37 37 37 181 181 181 155 155 155 74 24 24 24
 271 235 235 336 336 336 336 267 267 267 267 267 295 37 37 37 37 37 37 37
 161 161 155 155 155 155 243 243 291 291 271 320 320 320 136 12 12 12 267 267
 295 295 295 157 37 37 37 37 37 222 222 155 155 155 155 155 243 243 291 291
 320 320 320 320 12 12 12 12 12 295 295 295 157 157 157 37 222 222 222 222
 222 155 155 155 155 155 243 243 291 291 320 320 320 320 12 12 12 12 12 295
 295 295 157 157 157 157 191 222 222 222 222 155 155 155 139 139 139 139 291 291
 32 32 32 32 220 220 220 220 220 220 295 295 157 157 157 157 191 191 191 191
 282 282 282 139 139 139 139 139 139 291 32 32 32 32 220 220 220 220 220 220
 220 223 223 223 223 223 202 202 202 282 282 282 282 139 139 139 139 139 139 139
 32 32 32 32 220 220 220 220 220 220 220 223 223 223 223 223 202 202 202 282
 282 282 282 282 139 139 139 284 284 284 32 32 347 347 220 220 220 220 220 346
 346 346 223 223 223 223 202 202 202 282 282 282 282 282 139 139 284 284 284 284
 242 347 347 347 220 220 220 220 220 346 346 346 223 223 223 223 202 202 202 202
 282 282 282 57 57 365 284 284 284 284 242 347 347 347 347 220 220 220 220 346
 346 346 223 223 223 223 202 202 202 202 282 57 57 57 57 365 365 284 284 242
 242 347 347 347 347 220 220 220 220 346 346 346 73 73 73 266 266 266 266 266
 164 57 57 57 57 365 365 365 242 242 113 113 347 347 347 104 104 104 45 45
 81 81 73 73 266 266 266 266 266 266 164 57 57 57 57 365 365 365 106 106
 113 113 113 113 347 104 104 104 178 178 178 178 73 73 73 185 185 185 266 266
 164 164 57 57 57 365 193 106 106 106 113 113 113 113 114 114 114 178 178 178
 178 178 73 73 73 185 185 185 185 185 164 164 146 146 146 193 193 106 106 106
 98 113 113 113 384 384 384 182 182 182 182 41 41 41 41 247 247 247 247 247
 247 149 149 149 149 149 193 98 98 98 98 113 113 113 384 384 384 182 182 182
 182 41 41 41 41 247 247 247 247 247 247 149 149 149 149 149 193 98 98 98
 98 98 113 113 384 384 324 324 324 182 182 41 41 41 41 247 247 247 247 247
 247 340 149 149 149 149 98 98 98 98 98 98 13 13 13 324 324 324 324 338
 338 41 41 41 41 247 247 247 247 247 247 340 340 262 66 66 66 98 98 98
 48 48 13 13 13 324 324 324 338 338 338 41 41 41 41 247 247 247 247 247
 247 340 262 262 66 66 66 66 48 48 48 48 13 13 13 324 324 338 338 338
 338 338 41 41 41 247 102 102 102 247 247 262 262 262 66 66 66 66 48 48
 48 48 11 11 11 11 11 338 338 338 338 338 41 41 41 247 102 102 102 141
 141 140 262 262 66 66 66 66 48 48 48 48 11 11 11 11 166 205 205 205
 205 205 97 97 97 97 102 141 141 141 141 190 190 190 190 190 72 72 48 48
 175 175 11 11 166 166 166 205 205 205 205 205 97 97 97 97 385 385 141 141
 141 190 190 190 190 190 72 72 72 72 175 175 175 11 166 166 166 205 205 205
 205 205 97 97 97 97 385 385 385 141 141 190 190 190 190 190 72 72 72 72
 175 175 175 166 166 166 166 205 205 205 205 205 97 97 97 196 196 196 196 141
 141 190 190 190 190 190 72 72 72 72 235 175 235 166 166 336 336 205 205 205
 205 205 97 97 97 196 196 196 196 196 181 181 190 190 190 190 72 72 72 72
 235 235 235 235 336 336 336 336 205 205 205 205 97 97 97 196 196 196 196 196
 181 181 181 181 190 36 72 72 235 235 235 235 235 235 336 336 336 336 336 275
 275 275 275 97 168 196 196 196 196 181 181 181 181 181 181 36 36 235 235 235
 235 235 235 235 336 336 336 336 336 275 275 275 275 168 168 168 37 37 37 37
 181 181 181 181 155 155 155 24 24 235 24 235 235 235 336 336 336 336 336 275
 275 275 275 168 168 168 37 37 37 37 181 181 181 155 155 155 155 24 24 24
 24 235 235 136 136 136 336 336 267 275 267 267 372 310 310 310 37 222 222 222
 222 155 155 155 155 155 155 243 24 24 24 320 320 136 136 136 136 12 70 70
 295 295 372 310 310 310 222 222 222 222 222 155 155 155 155 155 155 243 291 291
 359 320 320 136 136 136 136 12 12 70 295 295 157 157 310 310 222 222 222 222
 222 155 155 155 155 155 155 243 291 291 32 32 32 136 136 136 136 12 12 220
 87 87 87 157 310 310 222 222 222 222 222 155 155 155 155 139 139 139 291 359
 32 32 32 32 136 220 220 220 220 220 87 87 87 223 223 223 137 137 222 222
 222 155 155 139 139 139 139 139 139 359 32 32 32 32 220 220 220 220 220 220
 87 87 223 223 223 223 137 137 137 282 282 282 282 139 139 139 139 139 139 139
 32 32 32 32 220 220 220 220 220 220 220 87 223 223 223 223 223 137 137 282
 282 282 282 139 139 139 139 284 284 284 32 32 32 220 220 220 220 220 220 346
 346 223 223 223 223 223 223 137 137 285 285 285 282 282 139 139 284 284 284 284
 109 32 109 347 220 220 220 220 220 346 346 346 223 223 223 223 223 266 266 285
 285 285 285 285 57 139 284 284 284 284 109 109 109 347 220 220 220 220 346 346
 346 346 186 186 186 223 266 266 266 266 164 164 164 57 57 365 217 217 217 217
 109 109 109 347 220 220 220 220 220 346 346 346 186 186 186 266 266 266 266 266
 164 164 164 164 57 365 217 217 217 217 113 113 113 347 220 220 220 81 81 81
 81 81 186 186 266 266 266 266 266 266 164 164 164 164 57 365 217 106 106 106
 113 113 113 113 319 319 319 81 81 81 81 81 81 186 266 266 266 266 266 266
 164 164 164 164 57 106 106 106 106 106 113 113 113 113 319 319 114 178 81 81
 81 81 313 313 313 266 266 266 266 266 164 164 164 164 164 106 106 106 106 106
 113 113 113 113 384 384 384 182 182 182 182 182 41 41 313 313 247 247 247 247
 149 149 149 149 149 149 149 98 98 98 98 113 113 384 384 384 384 182 182 182
 182 182 41 41 41 247 247 247 247 247 149 149 149 149 149 149 149 98 98 98
 98 98 13 13 384 384 384 324 182 182 182 41 41 41 41 247 247 247 247 247
 149 149 149 149 149 149 149 98 98 98 98 13 13 13 13 384 324 324 324 182
 182 41 41 41 41 247 247 247 247 247 247 262 262 262 262 66 66 98 98 98
 48 13 13 13 13 13 324 324 338 338 338 41 41 41 41 247 247 102 247 247
 262 262 262 262 262 66 66 66 48 48 48 48 13 13 13 13 324 338 338 338
 338 338 41 41 258 258 102 102 102 247 262 262 262 262 262 66 66 66 48 48
 48 48 13 13 13 13 207 338 338 338 338 338 41 258 258 258 102 102 102 141
 262 262 262 262 262 66 66 66 48 48 48 175 175 13 11 166 166 205 205 205
 205 205 97 97 97 258 385 102 141 141 141 190 190 190 190 190 72 72 72 48
 175 175 175 175 166 166 166 205 205 205 205 205 97 97 97 385 385 385 385 141
 141 190 190 190 190 190 72 72 72 175 175 175 175 175 166 166 166 205 205 205
 205 205 97 97 97 97 385 385 385 141 141 190 190 190 190 190 72 72 72 175
 175 175 175 175 166 166 166 205 205 205 205 205 97 97 97 97 196 196 196 196
 141 190 190 190 190 190 72 72 72 72 175 175 175 175 166 166 166 205 205 205
 205 205 97 97 97 196 196 196 196 196 181 181 190 190 190 190 72 72 72 72
 235 235 235 235 83 336 336 336 205 275 275 275 97 97 97 196 196 196 196 196
 181 181 181 181 36 36 36 72 235 235 235 235 235 235 370 370 370 370 275 275
 275 275 275 168 168 168 196 196 196 196 181 181 181 181 36 36 36 235 235 235
 235 235 235 235 370 370 370 370 275 275 275 275 275 168 168 168 168 168 37 37
 181 181 181 181 36 36 36 235 235 235 235 235 235 235 370 370 370 370 275 275
 275 275 275 168 168 168 168 222 222 222 181 181 155 155 155 155 155 24 24 24
 24 235 235 136 136 136 252 252 275 275 275 275 372 310 310 310 310 222 222 222
 222 155 155 155 155 155 155 155 24 24 359 359 136 136 136 136 252 252 70 70
 70 372 372 310 310 310 310 222 222 222 222 155 155 155 155 155 155 243 291 359
 359 359 359 136 136 136 136 136 70 70 70 372 372 372 310 310 310 222 222 222
 222 155 155 155 155 155 155 155 359 359 359 359 136 136 136 136 136 136 220 87
 87 87 87 372 310 310 222 222 222 222 222 155 155 155 155 139 139 139 359 359
 32 32 32 136 136 136 220 220 220 87 87 87 87 223 223 223 137 137 137 222
 155 155 155 155 139 139 139 139 139 359 32 32 32 32 337 337 220 220 220 220
 87 87 87 223 223 223 137 137 137 285 285 285 285 139 139 139 139 139 139 25
 32 32 32 32 337 337 220 220 220 220 87 87 223 223 223 223 137 137 137 285
 285 285 285 285 139 139 139 139 284 25 32 32 32 32 220 220 220 220 220 346
 346 223 223 223 223 223 137 137 137 285 285 285 285 285 139 139 139 284 284 217
 109 109 109 109 220 220 220 220 220 346 346 346 223 223 223 223 223 266 285 285
 285 285 285 285 139 217 217 217 217 217 109 109 109 109 220 220 220 220 346 346
 346 346 186 186 186 266 266 266 266 266 164 164 164 164 164 217 217 217 217 217
 109 109 109 109 220 220 220 220 81 81 81 81 186 186 186 266 266 266 266 266
 164 164 164 164 164 217 217 217 217 217 109 109 109 319 319 319 319 81 81 81
 81 81 186 186 186 266 266 266 266 266 164 164 164 164 164 217 217 217 217 106
 113 113 113 319 319 319 319 81 81 81 81 81 81 186 266 266 266 266 266 266
 164 164 164 164 164 217 217 106 106 106 113 113 113 113 319 319 384 81 182 182
 182 81 313 313 313 266 266 266 266 266 164 164 164 164 164 106 106 106 106 106
 255 255 255 384 384 384 384 182 182 182 182 182 182 313 313 313 396 396 396 396
 201 149 149 149 149 149 255 255 255 255 255 255 255 384 384 384 384 182 182 182
 182 182 182 313 313 313 77 77 77 247 149 149 149 149 149 149 255 255 255 255
 255 255 13 13 384 384 384 182 182 182 182 182 41 41 41 258 247 77 247 247
 149 149 149 149 149 149 255 255 255 255 255 13 13 13 13 384 384 182 182 182
 182 182 41 41 258 258 258 247 247 247 201 262 262 262 262 262 255 255 255 255
 13 13 13 13 13 13 324 324 338 338 338 338 258 258 258 258 258 258 247 247
 262 262 262 262 262 262 66 255 255 255 13 13 13 13 13 13 13 338 338 338
 338 338 258 258 258 258 258 258 258 224 262 262 262 262 262 262 66 66 48 48
 13 13 13 13 13 13 207 207 207 338 338 148 258 258 258 258 258 258 258 224
 224 262 262 262 262 262 66 17 17 48 371 371 371 13 13 207 207 207 207 207
 148 148 148 258 258 258 258 258 224 224 224 262 262 262 262 262 72 72 17 175
 175 175 175 175 166 166 301 207 207 205 148 148 148 97 97 385 385 385 385 224
 224 190 190 190 190 190 72 72 72 175 175 175 175 175 166 166 166 205 205 205
 148 148 148 97 97 97 385 385 385 141 141 190 190 190 190 190 72 72 72 175
 175 175 175 175 166 166 166 205 205 205 205 148 148 97 97 97 196 196 196 196
 141 190 190 190 190 190 72 72 72 175 175 175 150 150 83 83 83 205 205 205
 205 148 148 97 97 196 196 196 196 196 181 181 190 190 190 36 36 72 72 175
 235 235 235 83 83 83 83 83 275 275 275 275 275 97 168 196 196 196 196 196
 181 181 183 183 36 36 36 36 199 235 235 235 235 83 83 370 370 370 275 275
 275 275 275 168 168 168 168 196 117 117 181 181 183 183 36 36 36 36 235 235
 235 235 235 235 370 370 370 370 275 275 275 275 275 168 168 168 168 168 117 117
 117 181 183 183 36 36 36 36 235 235 235 235 235 235 370 370 370 370 275 275
 275 275 275 168 168 168 168 168 117 117 117 117 155 155 155 155 155 216 24 235
 24 235 235 136 136 252 252 275 275 70 275 275 310 310 310 310 310 222 222 222
 117 155 155 155 155 155 155 155 24 24 359 359 359 136 136 252 252 252 70 70
 70 372 372 310 310 310 310 222 222 222 222 155 155 155 155 155 155 155 359 359
 359 359 359 136 136 136 252 252 70 70 70 372 372 372 310 310 310 222 222 222
 222 155 155 155 155 155 155 155 359 359 359 359 359 136 136 136 136 252 70 87
 87 87 372 372 310 310 310 222 222 222 222 155 155 155 155 155 139 139 359 359
 359 359 32 136 136 136 337 337 220 87 87 87 87 223 223 343 137 137 137 137
 155 155 155 155 155 139 139 139 359 359 25 32 32 337 337 337 337 337 220 87
 87 87 87 223 223 343 137 137 137 137 285 285 285 139 139 139 139 139 139 25
 25 25 32 337 337 337 337 337 220 153 87 87 223 223 223 223 137 137 137 285
 285 285 285 285 139 139 139 139 25 25 25 109 109 337 337 337 337 220 220 346
 346 223 223 223 223 223 343 137 137 285 285 285 285 285 139 139 217 217 217 25
 109 109 109 109 337 337 220 220 346 346 346 223 186 186 223 223 343 137 137 285
 285 285 285 285 285 217 217 217 217 217 109 109 109 109 214 220 220 220 346 346
 346 346 186 186 186 266 266 266 266 266 164 164 164 164 164 217 217 217 217 217
 109 109 109 109 319 319 220 81 81 81 81 81 186 186 186 266 266 266 266 266
 164 164 164 164 164 217 217 217 217 217 109 109 109 319 319 319 319 81 81 81
 81 81 186 186 186 266 266 266 266 266 164 164 164 164 164 217 217 217 217 217
 255 113 113 319 319 319 319 81 81 81 81 81 81 186 313 266 266 266 266 266
 164 164 164 164 164 217 217 217 106 106 255 113 113 319 319 319 384 81 182 182
 182 81 313 313 313 313 266 266 266 164 164 164 164 149 149 217 217 255 255 255
 255 255 255 303 303 303 384 182 182 182 182 182 182 313 313 313 396 77 77 77
 201 201 381 149 149 149 255 255 255 255 255 255 255 303 303 303 303 182 182 182
 182 182 182 313 313 313 77 77 77 201 201 201 149 149 149 149 255 255 255 255
 255 255 255 13 303 303 303 303 182 182 182 206 206 313 258 258 77 77 77 201
 201 201 149 149 149 149 255 255 255 255 255 13 13 13 13 303 303 303 182 182
 206 206 258 258 258 258 258 77 77 201 201 201 262 262 262 262 255 255 255 255
 255 13 13 13 13 13 303 301 301 338 206 206 258 258 258 258 258 258 258 201
 201 262 262 262 262 262 255 255 255 255 13 13 13 13 13 13 301 301 301 301
 338 258 258 258 258 258 258 258 258 224 224 262 262 262 262 262 17 17 17 255
 371 371 13 13 13 301 207 207 207 301 301 148 258 258 258 258 258 258 224 224
 224 262 262 262 262 262 17 17 17 17 371 371 371 371 13 301 207 207 207 207
 148 148 148 258 258 258 258 258 224 224 224 224 195 195 195 195 17 17 17 17
 371 371 371 371 371 301 301 301 207 148 148 148 148 148 258 258 286 286 224 224
 224 224 195 195 195 195 72 17 17 371 175 175 175 150 150 166 219 219 219 148
 148 148 148 148 97 286 286 286 286 224 224 224 190 190 190 287 72 17 17 175
 175 150 150 150 150 219 219 219 219 148 148 148 148 148 97 286 286 286 286 286