# vtk DataFile Version 2.0
Data set from IO Version 6.4.197.9a0dee2
ASCII

DATASET RECTILINEAR_GRID
DIMENSIONS 31 31 31
X_COORDINATES 31 float
-4.700000 4.700000 14.099999 23.500000 32.899998 42.299999 51.699997 61.099995 70.500000 79.900002 89.300003 98.699997 108.099998 117.500000 126.899994 136.300003 145.699997 155.099991 164.500000 173.899994 183.300003 
192.699997 202.099991 211.500000 220.899994 230.299988 239.699997 249.099991 258.499969 267.899963 277.299988 
Y_COORDINATES 31 float
-4.700000 4.700000 14.099999 23.500000 32.899998 42.299999 51.699997 61.099995 70.500000 79.900002 89.300003 98.699997 108.099998 117.500000 126.899994 136.300003 145.699997 155.099991 164.500000 173.899994 183.300003 
192.699997 202.099991 211.500000 220.899994 230.299988 239.699997 249.099991 258.499969 267.899963 277.299988 
Z_COORDINATES 31 float
-4.700000 4.700000 14.099999 23.500000 32.899998 42.299999 51.699997 61.099995 70.500000 79.900002 89.300003 98.699997 108.099998 117.500000 126.899994 136.300003 145.699997 155.099991 164.500000 173.899994 183.300003 
192.699997 202.099991 211.500000 220.899994 230.299988 239.699997 249.099991 258.499969 267.899963 277.299988 
CELL_DATA 27000
SCALARS FeatureIds int 1
LOOKUP_TABLE default
 128 109 109 188 188 188 113 113 113 378 378 378 64 226 226 226 204 204 249 249
 249 249 297 297 297 297 297 297 128 128 128 77 188 188 188 188 113 113 113 113
 113 64 64 64 226 226 382 249 249 249 249 249 297 297 297 297 297 297 128 128
 77 77 188 188 188 188 113 113 113 113 113 64 64 64 64 382 382 382 249 249
 249 249 297 297 297 297 297 77 77 77 77 77 102 102 188 260 260 113 113 66
 66 64 64 64 64 382 382 382 382 249 249 249 297 297 297 297 297 77 77 77
 17 102 102 102 102 260 260 260 66 66 66 64 64 157 157 382 382 382 382 382
 93 93 93 297 297 297 17 17 17 17 17 102 102 102 57 57 260 260 66 66
 66 66 157 157 157 382 382 382 382 382 93 93 93 93 93 297 17 17 17 17
 363 363 363 57 57 57 57 260 260 66 66 66 157 157 157 366 366 382 382 50
 50 50 50 50 50 50 17 17 17 17 363 363 363 57 57 57 57 57 260 66
 66 66 157 366 366 366 366 356 356 50 50 50 50 50 251 150 150 17 17 363
 363 363 363 57 57 57 57 57 368 368 368 368 366 366 366 366 366 356 356 293
 293 50 50 251 251 150 150 150 150 38 38 156 156 57 301 301 301 57 368 368
 368 368 366 366 366 366 356 356 356 293 293 293 83 251 251 150 150 150 150 38
 156 156 156 57 301 301 301 301 368 368 368 173 173 366 366 366 356 356 356 356
 98 98 83 83 251 150 150 150 150 38 156 156 156 42 42 42 42 42 368 173
 173 173 173 173 366 366 366 356 356 98 98 98 98 83 83 83 150 150 150 38
 156 156 156 42 42 42 42 159 159 173 173 173 173 173 173 135 135 356 356 98
 98 98 98 98 83 362 362 150 253 253 126 334 334 334 42 42 159 159 159 173
 173 173 173 173 173 135 135 124 124 124 98 98 98 98 362 362 362 362 253 253
 126 334 334 334 334 42 159 159 173 173 173 173 173 173 173 135 135 124 124 124
 124 9 98 98 362 362 362 126 126 126 126 334 334 334 241 241 241 159 173 173
 173 173 173 121 121 121 135 124 124 124 124 9 9 15 275 275 303 126 126 126
 334 334 334 334 241 241 241 340 340 173 322 322 121 121 121 121 121 124 124 124
 124 9 15 15 15 275 303 303 126 126 334 334 334 334 241 241 241 340 340 322
 322 322 121 121 121 121 328 328 9 9 9 9 15 15 15 15 303 303 334 334
 334 334 334 334 241 241 241 340 154 154 154 322 121 121 121 121 328 328 194 9
 9 9 15 15 373 373 73 73 73 334 319 319 319 319 241 241 241 154 154 154
 154 154 121 121 121 194 194 194 194 194 9 9 15 373 373 373 73 73 73 334
 319 319 319 319 349 349 349 70 68 68 68 68 121 121 121 194 194 194 194 194
 342 342 97 97 373 373 73 73 73 319 319 319 319 319 349 349 349 70 68 68
 68 68 68 348 348 348 252 252 252 355 355 355 97 97 97 373 73 73 319 319
 319 319 319 319 349 349 349 68 68 68 68 68 68 348 348 348 252 252 252 355
 355 355 355 97 97 30 30 30 319 319 319 319 319 319 349 59 59 59 59 68
 68 132 132 191 348 348 252 252 252 355 355 355 355 355 30 30 30 30 30 319
 319 319 319 319 59 59 59 59 59 132 132 132 132 191 191 252 252 252 252 355
 355 355 355 30 30 30 30 30 30 319 115 115 319 319 59 59 59 79 79 132
 132 132 132 132 191 191 252 252 252 355 355 355 355 30 30 30 30 30 30 319
 115 115 115 115 155 155 79 79 79 132 132 132 132 132 191 191 252 252 252 345
 345 345 345 30 30 30 30 30 30 115 115 115 115 115 155 155 155 79 378 132
 132 132 132 132 379 379 273 273 273 345 345 345 345 266 266 266 266 30 30 115
 115 115 115 115 155 155 155 378 378 378 378 378 378 379 379 379 204 204 204 345
 345 345 345 266 266 266 266 266 266 115 109 109 109 115 155 155 155 113 378 378
 378 378 378 226 226 379 204 204 204 249 249 345 266 266 266 266 266 266 266 115
 128 109 188 188 188 188 113 113 113 113 378 64 64 64 226 226 204 204 249 249
 249 249 297 297 297 297 297 297 128 128 77 77 188 188 188 188 113 113 113 113
 113 64 64 64 64 382 382 249 249 249 249 249 297 297 297 297 297 77 77 77
 77 77 188 188 188 188 113 113 113 113 113 64 64 64 64 382 382 382 249 249
 249 249 297 297 297 297 297 77 77 77 77 77 77 188 188 188 113 113 113 66
 66 64 64 64 64 382 382 382 382 249 249 249 297 297 297 297 297 77 77 77
 17 77 77 102 57 260 260 260 66 66 66 66 64 157 157 382 382 382 382 382
 93 93 93 93 297 297 17 17 17 17 17 363 363 57 57 57 57 260 66 66
 66 66 157 157 157 382 382 382 382 93 93 93 93 93 93 297 17 17 17 17
 363 363 363 57 57 57 57 57 66 66 66 66 157 157 157 366 366 382 382 93
 93 93 93 93 251 251 17 17 17 17 363 363 363 363 57 57 57 57 66 66
 66 66 157 366 366 366 366 356 356 293 293 50 50 251 251 251 150 150 17 363
 363 363 363 363 57 57 57 57 368 368 368 304 366 366 366 366 366 356 356 293
 293 293 251 251 251 251 150 150 150 363 156 156 156 57 301 301 301 57 368 368
 368 173 366 366 366 366 356 356 356 293 293 293 251 251 251 150 150 150 150 150
 156 156 156 57 301 301 301 57 368 173 173 173 173 366 366 366 356 356 356 293
 98 98 98 251 251 150 150 150 150 150 156 156 156 42 301 301 301 159 173 173
 173 173 173 173 366 366 366 356 356 98 98 98 98 98 251 150 150 150 150 150
 156 156 156 42 42 42 159 159 159 173 173 173 173 173 173 366 366 356 356 98
 98 98 98 98 362 362 362 150 150 253 126 334 334 334 42 42 159 159 159 173
 173 173 173 173 173 135 135 207 124 98 98 98 98 98 362 362 362 362 126 253
 126 334 334 334 334 159 159 159 159 173 173 173 173 173 173 135 207 207 124 9
 9 9 9 362 362 362 362 362 126 126 126 334 334 334 334 241 159 159 173 173
 173 173 173 121 121 121 207 207 9 9 9 9 9 275 275 275 303 303 126 126
 126 334 334 334 241 241 340 340 340 173 173 121 121 121 121 121 207 9 9 9
 9 9 9 275 275 275 303 303 126 126 334 334 334 334 241 241 340 340 340 322
 322 121 121 121 121 121 194 194 9 9 9 9 9 275 275 303 303 303 303 334
 334 334 334 319 319 241 340 340 340 154 154 121 121 121 121 121 194 194 194 9
 9 9 15 275 373 373 73 73 73 334 319 319 319 319 319 241 340 154 68 68
 68 68 121 121 121 194 194 194 194 194 9 342 342 373 373 373 73 73 73 319
 319 319 319 319 319 349 70 70 68 68 68 68 121 121 191 194 194 194 194 342
 342 342 342 373 373 373 73 73 73 319 319 319 319 319 319 349 70 70 68 68
 68 68 68 191 191 191 252 252 252 342 342 342 342 373 373 373 73 73 319 319
 319 319 319 319 319 349 70 70 68 68 68 68 191 191 191 191 252 252 252 355
 355 355 355 355 30 30 30 30 319 319 319 319 319 319 319 59 59 59 59 68
 68 68 191 191 191 191 252 252 252 355 355 355 355 355 30 30 30 30 30 319
 319 319 319 319 319 59 59 59 59 125 132 132 132 191 191 191 252 252 252 355
 355 355 355 30 30 30 30 30 30 319 115 115 115 319 155 155 59 59 59 132
 132 132 132 191 191 191 252 252 252 355 355 355 355 30 30 30 30 30 30 319
 115 115 115 115 155 155 155 155 79 132 132 132 132 132 191 191 191 252 252 345
 345 345 345 30 30 30 30 30 30 115 115 115 115 115 155 155 155 155 378 132
 132 132 132 379 379 379 379 204 204 345 345 345 345 30 30 30 30 30 30 115
 115 115 115 115 155 155 155 155 378 378 378 378 378 379 379 379 204 204 204 345
 345 345 345 266 266 266 266 266 115 115 115 115 115 115 155 155 155 113 378 378
 378 378 378 379 379 379 204 204 204 249 249 345 345 266 266 266 266 266 266 115
 67 67 188 188 188 188 113 113 113 113 113 64 64 64 64 204 204 204 249 249
 249 249 297 297 297 297 297 347 347 77 77 77 188 188 188 188 113 113 113 113
 113 64 64 64 64 382 382 249 249 249 249 249 297 297 297 297 297 347 347 77
 77 77 188 188 188 188 113 113 113 113 64 64 64 64 64 382 382 382 249 249
 249 249 213 213 213 297 347 347 77 77 77 77 77 188 188 315 113 113 113 66
 66 64 64 64 64 382 382 382 382 249 249 249 213 213 213 213 347 347 77 77
 77 77 77 57 57 57 260 66 66 66 66 66 64 157 157 382 382 382 382 382
 93 93 213 213 213 213 17 17 17 17 17 363 363 57 57 57 57 66 66 66
 66 66 157 157 157 157 382 382 382 382 93 93 93 93 213 213 17 17 17 17
 363 363 363 57 57 57 57 57 66 66 66 66 157 157 157 366 366 382 382 93
 93 93 93 93 251 17 17 17 17 17 363 363 363 363 57 57 57 57 66 66
 66 66 157 366 366 366 366 356 356 293 293 293 251 251 251 231 150 17 17 363
 363 363 363 363 57 57 57 57 66 304 304 304 304 366 366 366 366 356 356 293
 293 293 251 251 251 231 150 150 150 363 156 156 156 363 301 301 301 57 304 304
 304 304 304 366 366 366 356 356 356 293 293 293 251 251 251 231 150 150 150 150
 156 156 156 363 301 301 301 301 148 173 173 173 173 366 366 366 366 356 356 293
 98 98 98 251 251 231 150 150 150 150 156 156 156 363 301 301 301 159 173 173
 173 173 173 173 366 366 366 356 356 98 98 98 98 98 362 362 362 150 150 150
 46 46 46 46 42 159 159 159 159 173 173 173 173 173 173 366 366 356 356 98
 98 98 98 98 362 362 362 362 362 126 46 46 46 46 46 159 159 159 159 173
 173 173 173 173 173 173 207 207 207 98 98 98 98 362 362 362 362 362 362 126
 46 46 46 46 46 159 159 159 173 173 173 173 173 173 173 207 207 207 207 9
 9 9 9 362 362 362 362 362 126 126 126 46 46 46 46 159 159 159 173 173
 173 173 173 121 121 207 207 207 207 9 9 9 9 275 275 362 303 303 126 126
 246 246 246 334 106 340 340 340 340 173 173 121 121 121 121 121 207 207 9 9
 9 9 275 275 275 275 303 303 303 126 246 246 246 246 106 241 340 340 340 340
 317 121 121 121 121 121 240 240 9 9 9 9 275 275 275 303 303 303 303 303
 246 246 246 319 319 340 340 340 340 317 317 121 121 121 121 121 194 194 194 9
 9 9 275 275 275 303 303 303 303 303 319 319 319 319 319 340 340 340 68 68
 68 68 121 121 121 194 194 194 194 9 342 342 342 373 373 373 73 73 73 319
 319 319 319 319 319 319 70 70 68 68 68 68 121 191 191 191 194 194 194 342
 342 342 342 373 373 373 73 73 73 319 319 319 319 319 319 349 70 70 68 68
 68 68 191 191 191 191 191 252 252 342 342 342 342 342 373 373 73 73 319 319
 319 319 319 319 319 319 70 68 68 68 68 68 191 191 191 191 191 252 252 342
 355 355 355 355 342 30 30 30 319 319 319 319 319 319 319 59 59 59 68 68
 68 68 191 191 191 191 191 252 252 355 355 355 355 355 30 30 30 30 30 319
 319 319 319 319 319 59 59 59 125 125 125 132 191 191 191 191 191 252 252 355
 355 355 355 355 30 30 30 30 30 319 115 115 115 238 155 155 59 59 125 125
 125 132 132 191 191 191 191 252 252 355 355 355 355 30 30 30 30 30 30 319
 115 115 115 115 155 155 155 125 125 125 125 132 132 191 191 191 191 191 252 345
 345 345 345 30 30 30 30 30 30 115 115 115 115 115 155 155 155 155 125 125
 132 132 132 379 379 379 379 204 345 345 345 345 345 30 30 30 30 30 30 115
 115 115 115 115 155 155 155 155 378 378 378 378 379 379 379 379 204 204 204 345
 345 345 345 30 30 30 30 30 30 115 115 115 115 115 155 155 155 113 113 378
 378 378 378 379 379 379 204 204 204 249 249 345 345 266 266 266 266 266 19 115
 67 67 67 67 229 229 229 113 113 113 346 64 64 64 220 220 204 249 249 249
 249 249 249 213 297 19 347 347 347 347 67 67 67 67 229 229 229 113 113 113
 346 64 64 64 64 14 14 14 249 249 249 249 213 213 213 297 347 347 347 347
 77 67 67 67 229 315 315 113 113 346 346 64 64 64 64 14 14 14 249 249
 249 249 213 213 213 213 347 347 347 347 77 77 67 67 315 315 315 113 113 346
 346 64 64 64 64 14 14 14 382 249 249 213 213 213 213 213 347 347 347 77
 77 77 67 67 315 315 315 66 66 66 66 66 64 157 157 14 14 382 382 382
 223 223 213 213 213 213 347 347 347 77 17 363 363 57 57 57 57 66 66 66
 66 66 157 157 157 158 382 382 382 223 223 223 223 213 213 271 271 271 17 17
 363 363 363 57 57 92 57 57 66 66 66 304 304 157 157 366 227 227 227 223
 223 223 223 223 223 271 271 271 17 17 363 363 363 363 92 92 92 57 66 304
 304 304 304 304 366 366 366 227 356 356 293 223 223 251 231 271 271 271 271 363
 363 49 363 363 57 92 57 57 304 304 304 304 304 366 366 366 366 356 356 356
 293 189 189 251 231 231 231 271 271 363 49 49 49 363 57 57 57 57 304 304
 304 304 304 366 366 366 356 356 356 356 293 189 189 251 231 231 231 150 150 150
 49 49 49 49 301 301 301 148 148 148 148 304 304 366 366 366 366 356 356 356
 98 98 98 251 231 231 231 150 150 133 49 49 49 49 301 301 148 148 148 148
 148 173 173 173 366 366 366 356 356 98 98 98 98 98 362 362 362 150 150 100
 46 46 46 46 46 159 159 148 148 148 173 173 173 173 173 366 207 207 207 98
 98 98 98 362 362 362 362 362 100 100 46 46 46 46 46 146 146 146 148 173
 173 173 173 173 173 207 207 207 207 207 98 98 98 362 362 362 362 362 100 100
 46 46 46 46 46 146 146 146 146 173 173 173 173 173 173 207 207 207 207 9
 9 9 9 362 362 362 362 362 126 46 46 46 46 46 46 146 146 146 146 173
 173 173 173 173 121 207 207 207 207 9 9 9 9 275 275 362 303 303 303 46
 246 246 246 246 106 106 146 146 146 317 317 317 121 121 121 207 207 207 207 9
 9 9 275 275 275 303 303 303 303 303 246 246 246 246 106 106 106 146 146 317
 317 317 121 121 121 11 240 240 240 9 9 9 275 275 275 303 303 303 303 303
 246 246 246 246 106 106 106 106 340 317 317 317 317 11 11 11 240 240 240 9
 9 9 275 275 275 303 303 303 303 303 319 319 319 319 106 106 106 106 68 68
 317 317 317 11 11 11 194 194 194 342 342 342 342 342 373 272 303 303 303 303
 319 319 319 319 319 319 70 68 68 68 68 68 191 191 191 191 191 194 342 342
 342 342 342 342 373 373 272 303 303 319 319 319 319 319 319 349 70 68 68 68
 68 68 191 191 191 191 191 191 342 342 342 342 342 342 342 373 272 303 319 319
 319 319 319 319 319 319 68 68 68 68 68 68 191 191 191 191 191 191 252 342
 342 342 342 342 342 30 30 30 319 319 319 319 319 319 319 104 104 104 104 125
 125 125 191 191 191 191 191 191 252 355 355 355 355 355 30 30 30 30 30 319
 238 238 238 238 238 59 59 125 125 125 125 125 191 191 191 191 191 191 252 355
 355 355 355 355 30 30 30 30 30 319 238 238 238 238 238 155 59 125 125 125
 125 125 191 191 191 191 191 191 252 355 355 355 355 30 30 30 30 30 30 30
 238 238 238 238 155 155 155 125 125 125 125 125 191 191 191 191 191 200 200 261
 261 261 261 30 30 30 30 30 30 115 115 115 115 115 155 155 155 125 125 125
 125 125 191 191 379 200 200 200 200 261 261 261 261 30 30 30 30 30 30 115
 115 115 115 115 155 155 155 155 125 125 125 125 379 379 379 379 200 200 200 261
 261 261 261 261 30 30 30 30 19 115 67 67 67 67 229 229 229 113 113 378
 378 378 220 220 379 379 204 204 249 249 249 261 261 261 19 19 19 19 19 67
 67 67 67 67 229 229 229 229 346 346 346 346 220 220 220 220 220 249 249 249
 249 249 249 213 19 19 19 347 347 67 67 67 67 67 229 229 229 229 346 346
 346 346 220 220 220 14 14 14 14 249 249 249 213 213 213 19 347 347 347 347
 67 67 67 67 229 229 229 229 346 346 346 346 346 220 220 14 14 14 14 249
 249 213 213 213 213 213 347 347 347 347 67 67 67 67 315 315 315 346 346 346
 346 346 346 346 14 14 14 14 14 223 223 223 213 213 213 213 347 347 347 347
 347 67 67 67 315 315 315 315 346 346 346 346 346 158 158 158 14 14 14 223
 223 223 223 213 213 213 347 347 347 347 17 363 67 81 81 81 81 81 66 346
 346 346 304 157 158 158 158 227 227 223 223 223 223 223 213 271 271 271 271 271
 363 58 58 81 81 81 81 81 304 304 304 304 304 304 158 158 227 227 227 223
 223 223 223 223 223 271 271 271 271 271 133 58 58 81 81 81 81 81 304 304
 304 304 304 152 152 152 227 227 227 223 223 223 223 223 271 271 271 271 271 271
 133 133 133 81 81 81 81 81 304 304 304 304 304 152 152 152 227 227 227 189
 189 189 189 189 295 295 271 271 271 271 133 133 133 133 81 81 81 81 148 304
 304 304 304 152 152 152 152 227 227 189 189 189 189 189 295 295 295 271 271 133
 133 133 133 133 81 81 81 148 148 148 148 304 304 152 152 152 152 356 356 189
 189 189 189 189 295 295 295 150 271 133 100 133 133 133 81 148 148 148 148 148
 148 148 173 152 152 152 152 356 356 98 98 98 98 362 362 362 362 362 100 100
 100 100 46 46 46 148 148 148 148 148 148 148 173 5 5 152 207 207 207 98
 98 98 98 362 362 362 362 362 100 100 100 46 46 46 46 146 146 146 148 148
 148 173 5 5 5 5 207 207 207 207 9 98 362 362 362 362 362 362 100 100
 46 46 46 46 46 146 146 146 146 146 173 173 5 5 5 207 207 207 207 9
 9 9 9 362 362 362 362 362 100 100 46 46 46 46 106 146 146 146 146 146
 173 173 5 5 5 207 207 207 207 9 9 9 9 275 275 362 303 303 303 46
 46 46 46 46 106 106 146 146 146 146 317 317 11 11 11 11 207 207 207 9
 9 9 275 275 275 303 303 303 303 303 246 246 246 106 106 106 106 146 146 317
 317 317 11 11 11 11 240 240 240 9 9 369 369 275 275 272 303 303 303 303
 246 246 246 106 106 106 106 106 146 317 317 317 11 11 11 11 240 240 240 9
 9 369 369 369 272 272 272 272 303 303 246 246 246 319 106 106 106 106 317 317
 317 317 11 11 11 11 194 194 342 342 342 342 369 369 272 272 272 272 272 303
 319 319 319 319 106 106 106 104 68 68 68 68 11 191 191 191 191 191 342 342
 342 342 342 342 272 272 272 228 228 319 319 319 319 319 319 104 104 104 104 104
 104 68 191 191 191 191 191 191 342 342 342 342 342 342 342 272 228 228 228 319
 319 319 319 319 319 104 104 104 104 104 104 104 191 191 191 191 191 191 191 342
 342 342 342 342 342 342 228 228 228 319 319 238 238 238 238 104 104 104 104 104
 104 104 191 191 191 191 191 191 191 342 342 342 342 342 342 30 30 30 228 319
 238 238 238 238 238 104 104 104 104 125 125 125 191 191 191 191 191 191 191 355
 355 281 355 355 30 30 30 30 30 238 238 238 238 238 238 238 125 125 125 125
 125 125 191 191 191 191 191 191 191 281 281 281 310 30 30 30 30 30 30 238
 238 238 238 238 238 155 125 125 125 125 125 125 191 191 191 191 200 200 200 261
 261 261 261 261 30 30 30 30 238 238 238 238 238 238 238 155 155 179 125 125
 125 125 220 191 191 200 200 200 200 261 261 261 261 261 30 19 19 19 19 238
 67 67 67 67 229 155 229 229 125 125 125 384 220 220 220 200 200 200 200 261
 261 261 261 261 19 19 19 19 19 19 67 67 67 67 229 229 229 229 346 346
 346 220 220 220 220 220 200 200 200 261 261 261 261 261 19 19 19 19 19 67
 67 67 67 67 229 229 229 229 346 346 346 346 220 220 220 220 220 220 14 14
 118 118 118 19 19 19 19 19 19 67 67 67 67 67 229 229 229 229 346 346
 346 346 220 220 220 220 14 14 14 14 118 118 118 19 19 19 19 347 347 347
 67 67 67 67 229 229 229 229 346 346 346 346 346 220 220 14 14 14 14 14
 223 118 213 213 213 19 347 347 347 347 67 67 67 67 229 315 315 346 346 346
 346 346 346 220 220 14 14 14 14 223 223 223 223 213 213 347 347 347 347 347
 67 67 67 67 229 315 315 346 346 346 346 346 346 346 158 158 14 14 14 223
 223 223 223 223 213 271 347 347 347 347 67 67 67 81 81 81 81 81 346 346
 346 346 346 158 158 158 158 227 227 223 223 223 223 223 223 271 271 271 271 271
 58 58 58 81 81 81 81 81 304 304 304 304 304 304 158 158 227 227 227 223
 223 223 223 223 223 271 271 271 271 271 133 58 58 81 81 81 81 81 304 304
 304 304 304 152 152 152 227 227 227 223 223 223 223 223 271 271 271 271 271 271
 133 133 58 81 81 81 81 81 304 304 304 304 304 152 152 152 227 227 227 189
 189 189 189 189 295 295 271 271 271 133 133 43 133 133 81 81 81 88 148 304
 304 304 304 152 152 152 152 141 141 189 189 189 189 189 295 295 295 271 271 133
 133 133 133 133 81 88 88 148 148 148 148 304 304 152 152 152 152 141 141 189
 189 189 189 189 295 295 295 271 271 133 100 133 133 133 81 148 148 148 148 148
 148 148 152 152 152 152 152 141 141 189 189 189 189 189 295 295 295 100 100 100
 100 100 133 133 81 148 148 148 148 148 148 148 5 5 5 5 152 207 141 98
 98 174 98 362 362 362 362 100 100 100 100 46 46 46 46 146 146 146 148 148
 148 148 5 5 5 5 207 207 207 207 174 174 174 362 362 362 362 100 100 100
 100 46 46 46 46 146 146 146 146 146 148 148 5 5 5 5 207 207 207 9
 174 174 174 362 362 362 362 100 100 100 46 46 46 46 106 146 146 146 146 146
 146 5 5 5 5 5 207 207 207 9 174 174 174 275 272 362 272 303 100 100
 46 46 46 106 106 106 146 146 146 146 317 317 11 11 11 11 250 250 250 250
 369 369 369 369 272 272 272 272 272 303 246 246 246 106 106 106 106 146 146 317
 317 317 11 11 11 11 250 250 250 250 369 369 369 369 272 272 272 272 272 272
 246 246 246 106 106 106 106 106 146 317 317 317 11 11 11 11 11 250 250 250
 369 369 369 369 272 272 272 272 272 272 103 246 103 106 106 106 106 106 317 317
 317 317 11 11 11 11 11 250 250 342 369 369 369 369 272 272 272 272 272 272
 319 319 319 319 106 106 106 104 104 317 317 317 11 11 11 191 191 191 342 342
 342 342 342 342 272 272 272 228 228 272 319 319 319 319 36 104 104 104 104 104
 104 104 191 191 191 191 191 191 342 342 342 342 342 342 342 272 228 228 228 228
 319 319 319 238 36 36 104 104 104 104 104 104 191 191 191 191 191 191 191 342
 342 342 342 342 342 228 228 228 228 228 238 238 238 238 36 36 104 104 104 104
 104 104 191 191 191 191 191 191 191 342 342 342 342 342 342 228 228 228 228 238
 238 238 238 238 238 36 104 104 104 104 104 104 191 191 191 191 191 191 191 310
 310 310 281 281 30 30 30 30 238 238 238 238 238 238 238 36 104 104 104 125
 125 125 191 191 191 191 191 200 200 200 281 281 281 281 30 30 30 30 238 238
 238 238 238 238 238 179 179 179 125 125 125 125 28 191 191 200 200 200 200 261
 261 261 261 261 19 19 19 19 19 238 238 238 238 238 238 179 179 179 179 125
 384 384 220 220 200 200 200 200 200 261 261 261 261 261 19 19 19 19 19 238
 67 67 67 67 229 229 229 179 179 346 384 384 220 220 220 200 200 200 200 261
 261 261 261 261 19 19 19 19 19 19 67 67 67 67 229 229 229 229 346 346
 346 384 220 220 220 220 200 200 200 261 261 261 261 261 19 19 19 19 19 67
 67 67 67 67 229 229 229 45 346 346 346 384 220 220 220 220 220 220 321 118
 118 118 118 118 19 19 19 19 19 67 67 67 67 67 229 229 229 346 346 346
 346 346 220 220 220 220 14 14 14 118 118 118 118 118 19 19 19 19 347 67
 67 67 67 67 229 229 229 346 346 346 346 346 346 220 220 14 14 14 14 14
 118 118 118 118 19 19 19 347 347 347 67 67 67 67 229 229 229 346 346 346
 346 346 346 220 220 14 14 14 14 223 223 223 223 223 19 19 347 347 347 347
 67 67 67 67 229 315 229 346 346 346 346 346 346 346 158 158 14 14 14 223
 223 223 223 223 223 271 271 347 347 347 262 262 262 81 81 81 81 346 346 346
 346 346 346 158 158 158 158 227 227 223 223 223 223 223 223 271 271 271 271 271
 58 58 58 81 81 81 81 81 304 304 304 304 304 158 158 158 227 227 227 223
 223 223 223 223 223 271 271 271 271 271 58 58 58 131 81 81 81 81 304 304
 304 304 304 152 152 152 227 227 227 223 223 223 223 223 271 271 271 271 271 271
 133 133 58 131 81 81 88 88 88 304 304 304 304 152 152 152 141 227 141 141
 189 189 189 189 295 295 271 271 271 133 133 133 133 133 81 88 88 88 88 304
 304 304 304 152 152 152 141 141 141 141 189 189 189 189 295 295 295 271 271 133
 133 133 133 133 81 88 88 88 148 148 304 304 152 152 152 152 152 141 141 141
 189 189 189 189 295 295 295 271 271 133 133 133 133 133 81 88 88 148 148 148
 148 148 152 152 152 152 152 141 141 141 189 189 189 189 295 295 295 100 100 100
 100 100 133 133 60 60 88 148 148 148 148 148 5 5 5 152 152 141 141 141
 174 174 174 362 362 362 362 100 100 100 100 100 46 46 146 146 146 146 148 148
 148 337 5 5 5 5 5 207 270 174 174 174 174 174 362 362 362 100 100 100
 100 46 46 46 146 146 146 146 146 146 148 337 5 5 5 5 5 207 250 174
 174 174 174 174 362 362 362 100 100 100 46 46 46 46 106 106 146 146 146 146
 146 5 5 5 5 5 250 250 250 250 174 174 174 174 272 272 272 272 100 100
 46 46 46 106 106 106 146 146 146 146 317 317 11 11 11 11 250 250 250 250
 174 174 174 369 272 272 272 272 272 272 246 246 106 106 106 106 106 146 146 317
 317 317 11 11 11 11 250 250 250 250 369 369 369 369 272 272 272 272 272 272
 103 103 103 106 106 106 106 106 146 317 317 317 11 11 11 11 250 250 250 250
 369 369 369 369 272 272 272 272 272 272 103 103 103 103 106 106 106 106 104 317
 317 317 11 11 11 11 250 250 250 120 369 369 369 369 272 272 272 272 272 272
 103 103 103 103 106 106 106 104 104 104 317 317 11 11 11 11 191 120 120 120
 120 342 369 369 272 272 272 228 228 272 103 103 103 103 36 104 104 104 104 104
 104 104 191 191 191 191 191 120 120 120 120 342 342 342 342 272 228 228 228 228
 212 238 238 36 36 36 104 104 104 104 104 104 104 191 191 191 191 191 120 120
 120 342 342 342 342 228 228 228 228 228 238 238 238 238 36 36 36 104 104 104
 104 104 191 191 191 191 191 191 191 120 120 342 342 342 342 228 228 228 228 238
 238 238 238 238 36 36 104 104 104 104 104 104 28 28 191 191 191 191 191 310
 310 310 281 281 175 175 175 175 238 238 238 238 238 238 36 36 104 104 104 104
 104 28 28 28 28 191 191 200 200 310 310 281 281 281 19 19 175 175 175 238
 238 238 238 238 238 179 179 179 179 125 384 28 28 28 28 200 200 200 200 261
 261 261 261 261 19 19 19 19 19 238 326 326 326 326 326 179 179 179 179 179
 384 384 384 28 28 200 200 200 200 261 261 261 261 261 19 19 19 19 19 19
 326 326 326 326 229 179 179 179 179 384 384 384 384 220 220 220 200 200 200 261
 261 261 261 261 19 19 19 19 19 19 67 67 67 67 229 229 229 179 346 346
 384 384 220 220 220 220 220 200 200 261 261 261 261 19 19 19 19 19 19 19
 357 67 67 67 229 45 45 45 45 346 384 384 384 220 220 220 220 321 321 321
 118 118 118 118 19 19 19 19 19 357 357 67 67 67 229 229 45 45 346 346
 346 346 220 220 220 220 321 321 321 321 118 118 118 118 19 19 19 19 19 357
 357 67 67 67 229 229 45 45 346 346 346 346 346 220 220 220 321 321 321 118
 118 118 118 118 19 19 19 19 357 357 67 67 67 67 229 229 45 45 346 346
 346 346 346 220 220 87 87 87 87 118 118 118 118 118 19 19 19 347 357 357
 262 262 262 262 262 229 45 346 346 346 346 346 346 346 158 87 87 87 87 223
 223 223 223 223 353 47 47 47 347 262 262 262 262 262 262 81 81 346 346 346
 346 346 346 346 158 87 87 87 87 223 223 223 223 223 353 47 47 47 95 262
 262 262 262 131 131 81 81 81 162 162 304 304 304 152 158 158 227 227 227 223
 223 223 223 223 353 271 271 271 95 262 262 58 131 131 131 81 88 88 88 162
 304 304 304 152 152 152 141 227 141 180 180 223 223 223 271 271 271 271 95 95
 169 169 131 131 131 88 88 88 88 304 304 304 304 152 152 152 141 141 141 141
 189 195 189 189 295 295 271 271 271 169 169 169 133 133 81 88 88 88 88 371
 304 304 152 152 152 152 141 141 141 141 189 189 189 189 295 295 295 271 169 169
 169 169 133 133 88 88 88 88 88 148 304 304 152 152 152 152 141 141 141 141
 189 189 189 189 295 295 295 271 169 169 169 169 133 133 60 60 60 60 60 148
 148 148 152 152 152 152 152 141 141 141 189 189 189 189 295 295 295 169 169 169
 100 76 76 76 60 60 60 60 60 148 337 337 337 5 5 152 152 141 270 270
 174 174 174 174 362 232 232 100 100 100 100 100 46 76 60 60 60 60 60 60
 337 337 337 5 5 5 5 270 270 270 174 174 174 174 174 232 232 100 100 100
 100 46 46 46 146 146 146 146 146 146 337 337 337 5 5 5 250 270 270 270
 174 174 174 174 174 232 351 351 100 100 46 46 383 383 106 106 146 146 146 146
 337 337 337 5 5 250 250 250 250 174 174 174 174 174 174 272 272 272 272 100
 69 383 383 383 106 106 146 146 4 4 4 4 11 11 11 250 250 250 250 250
 174 174 174 174 174 272 272 272 272 272 103 103 383 106 106 106 106 221 4 4
 4 4 11 11 11 250 250 250 250 250 174 174 369 369 272 272 272 272 272 272
 103 103 103 103 106 106 106 221 4 4 4 211 211 11 11 11 250 250 250 250
 120 369 369 369 272 272 272 272 272 272 103 103 103 103 103 106 106 106 4 4
 4 211 211 211 211 11 250 250 120 120 120 120 53 53 53 272 272 272 272 103
 103 103 103 103 103 106 104 104 104 4 104 211 211 211 211 211 120 120 120 120
 120 120 53 53 53 272 272 272 283 283 103 103 103 103 36 104 104 104 104 104
 104 80 211 211 211 191 120 120 120 120 120 120 120 53 53 272 228 283 283 283
 212 212 212 36 36 36 36 104 104 104 104 80 80 28 28 191 120 120 120 120
 120 120 120 53 53 228 228 228 283 283 212 212 212 36 36 36 36 104 104 104
 104 80 28 28 28 28 191 120 120 120 120 120 120 175 175 175 175 175 175 212
 212 238 238 238 36 36 36 104 104 104 80 80 28 28 28 28 28 120 120 120
 120 310 281 175 175 175 175 175 175 212 238 238 238 326 36 36 36 104 104 80
 80 28 28 28 28 28 28 200 200 140 310 281 281 281 175 175 175 175 175 326
 326 326 326 326 326 179 179 179 179 80 80 28 28 28 28 28 200 200 200 140
 261 261 261 261 19 19 175 175 175 326 326 326 326 326 326 326 179 179 179 384
 384 384 384 28 28 28 200 200 200 140 261 261 261 261 19 19 19 19 19 326
 326 326 326 326 326 179 179 179 179 384 384 384 384 384 220 220 200 200 200 140
 261 261 261 19 19 19 19 19 19 326 357 326 326 326 229 45 45 45 45 384
 384 384 384 220 220 220 220 200 321 140 261 118 261 19 19 19 19 19 19 357
 357 357 357 67 45 45 45 45 45 45 384 384 384 220 220 220 321 321 321 321
 101 101 101 101 19 19 19 19 357 357 357 357 357 67 229 45 45 45 45 346
 346 384 384 220 220 321 321 321 321 101 101 101 101 101 134 134 19 19 357 357
 357 357 357 67 229 45 45 45 45 346 346 305 305 82 82 321 321 321 321 101
 101 101 101 101 134 134 19 19 357 357 357 262 262 262 262 45 45 45 45 346
 305 305 305 82 82 87 87 87 87 101 101 101 101 353 134 134 19 19 357 357
 262 262 262 262 262 45 45 45 346 346 346 305 305 82 87 87 87 87 87 87
 223 223 353 353 353 47 47 47 262 262 262 262 262 262 262 262 45 45 162 162
 346 305 305 82 87 87 87 87 87 180 223 353 353 353 353 47 47 47 95 262
 262 262 262 262 262 81 81 162 162 162 162 162 304 152 152 87 87 227 180 180
 180 180 353 353 353 47 47 47 95 262 262 262 262 131 131 88 88 88 162 162
 162 162 304 152 152 152 141 141 180 180 180 180 353 353 353 95 95 95 95 95
 169 169 131 131 131 88 88 88 88 371 371 371 152 152 152 44 141 141 141 180
 180 195 195 195 95 95 95 95 95 169 169 169 133 131 60 60 88 88 371 371
 371 371 152 152 152 44 141 41 141 141 195 195 195 195 95 95 95 95 169 169
 169 169 76 60 60 60 60 60 60 371 371 202 152 152 152 44 41 41 41 141
 195 195 195 195 295 95 95 95 169 169 169 76 76 76 60 60 60 60 60 60
 337 202 202 152 152 152 41 41 41 141 195 195 195 195 232 232 232 169 169 169
 76 76 76 76 60 60 60 60 60 60 337 337 337 337 152 152 152 270 270 270
 270 291 291 291 232 232 232 232 169 169 76 76 76 76 60 60 60 60 60 337