# vtk DataFile Version 2.0
Data set from IO Version 6.4.197.9a0dee2
ASCII

DATASET RECTILINEAR_GRID
DIMENSIONS 31 31 31
X_COORDINATES 31 float
-4.700000 4.700000 14.099999 23.500000 32.899998 42.299999 51.699997 61.099995 70.500000 79.900002 89.300003 98.699997 108.099998 117.500000 126.899994 136.300003 145.699997 155.099991 164.500000 173.899994 183.300003 
192.699997 202.099991 211.500000 220.899994 230.299988 239.699997 249.099991 258.499969 267.899963 277.299988 
Y_COORDINATES 31 float
-4.700000 4.700000 14.099999 23.500000 32.899998 42.299999 51.699997 61.099995 70.500000 79.900002 89.300003 98.699997 108.099998 117.500000 126.899994 136.300003 145.699997 155.099991 164.500000 173.899994 183.300003 
192.699997 202.099991 211.500000 220.899994 230.299988 239.699997 249.099991 258.499969 267.899963 277.299988 
Z_COORDINATES 31 float
-4.700000 4.700000 14.099999 23.500000 32.899998 42.299999 51.699997 61.099995 70.500000 79.900002 89.300003 98.699997 108.099998 117.500000 126.899994 136.300003 145.699997 155.099991 164.500000 173.899994 183.300003 
192.699997 202.099991 211.500000 220.899994 230.299988 239.699997 249.099991 258.499969 267.899963 277.299988 
CELL_DATA 27000
SCALARS FeatureIds int 1
LOOKUP_TABLE default
 59 59 59 59 212 212 212 212 212 43 43 43 73 73 73 238 238 238 176 343
 343 343 343 343 343 291 349 349 349 59 59 59 59 59 212 212 212 212 212 43
 43 43 43 73 73 238 176 176 176 343 343 343 343 343 343 291 349 349 349 59
 59 59 59 212 212 212 212 212 212 43 43 43 43 43 73 238 176 176 176 343
 343 343 343 343 343 291 349 349 349 59 59 59 258 258 212 212 212 212 212 43
 43 43 43 43 73 238 176 176 343 343 343 343 343 343 343 349 349 349 349 59
 289 289 258 258 212 212 212 212 212 43 43 43 43 43 65 238 176 176 38 38
 38 38 343 343 343 349 349 349 206 206 206 289 258 258 40 40 21 21 13 13
 13 43 43 65 65 384 384 38 38 38 38 38 38 38 28 28 206 206 206 206
 206 289 258 40 40 21 21 21 13 13 13 13 65 65 384 384 384 384 38 38
 38 38 38 28 28 116 116 206 206 206 206 289 196 196 21 21 21 21 13 13
 13 256 256 384 384 384 384 384 38 38 38 38 38 28 28 116 116 116 116 206
 206 294 196 196 21 21 21 21 21 13 256 256 256 256 384 179 179 179 38 38
 38 38 38 28 28 116 116 116 116 116 294 294 196 196 196 21 21 21 21 21
 256 256 256 256 179 179 179 182 182 38 146 146 146 146 116 116 116 116 116 116
 294 294 98 98 98 21 21 21 21 21 217 217 217 217 179 179 179 182 182 182
 146 146 146 146 151 116 116 116 116 116 294 294 98 98 98 21 21 21 21 21
 217 217 217 217 179 179 179 182 182 182 146 146 146 146 90 90 116 116 116 116
 227 227 98 98 98 98 21 21 21 21 217 217 217 17 17 17 101 101 182 182
 166 166 166 166 342 90 90 243 116 227 227 227 227 227 227 227 21 21 169 169
 169 217 217 17 17 17 101 101 101 101 166 166 166 166 166 243 243 243 243 227
 227 227 227 227 227 227 276 169 169 169 169 169 17 17 17 17 17 101 101 101
 166 166 166 166 166 243 243 243 243 227 227 227 227 227 227 276 276 169 169 169
 169 169 17 17 17 17 17 17 101 166 166 166 166 166 166 243 243 243 243 227
 227 227 227 227 227 276 276 169 169 169 169 169 17 17 334 334 334 91 91 91
 166 166 166 268 268 243 243 243 243 227 147 147 147 227 37 37 37 37 257 257
 257 257 78 78 78 334 334 91 91 184 184 184 268 268 268 268 243 243 243 227
 147 147 147 37 37 37 37 37 279 279 279 279 334 334 334 334 334 91 184 184
 184 184 268 268 268 268 268 210 230 230 230 230 108 37 37 37 37 37 279 279
 279 279 279 334 334 334 334 334 184 184 184 184 268 268 268 268 96 96 230 230
 230 108 108 37 37 37 37 27 27 279 279 126 126 126 334 334 95 95 95 184
 184 268 268 268 268 96 96 96 230 230 230 108 108 108 37 37 37 27 27 27
 27 126 126 126 126 334 95 95 95 184 184 268 268 268 268 96 96 96 96 230
 230 108 108 364 364 37 27 27 27 27 27 126 126 126 126 126 95 95 95 95
 41 41 41 268 96 96 96 96 96 230 330 330 364 364 364 364 27 27 27 27
 27 126 126 126 160 160 95 95 95 41 41 41 41 346 346 96 96 96 96 230
 330 330 330 364 364 364 27 27 27 74 74 126 126 126 160 209 209 209 209 209
 41 41 346 346 346 346 346 96 330 330 330 330 330 330 330 330 314 74 74 74
 74 74 73 126 160 209 209 209 209 209 41 346 346 346 346 346 346 346 330 330
 330 330 330 330 330 330 314 314 314 74 74 74 73 73 6 6 6 6 6 6
 6 346 346 346 346 346 346 346 330 330 144 330 330 330 330 314 314 314 314 314
 249 73 73 73 73 6 6 6 6 6 6 24 24 24 346 346 346 356 356 144
 59 59 59 59 59 314 314 314 314 314 249 73 73 73 73 73 6 6 6 6
 343 343 24 24 24 346 346 356 356 356 59 59 59 59 59 314 314 314 314 43
 43 73 73 73 73 238 238 238 238 343 343 343 343 343 291 291 356 356 356 59
 59 59 59 59 59 287 287 287 287 43 43 43 43 73 73 73 176 176 176 343
 343 343 343 343 343 349 349 349 349 59 59 59 59 59 212 212 287 287 287 43
 43 43 43 43 73 238 176 176 176 343 343 343 343 343 343 349 349 349 349 59
 59 59 59 59 212 212 287 287 43 43 43 43 43 43 73 176 176 176 176 343
 343 343 343 343 343 349 349 349 349 59 59 59 258 258 212 212 212 212 43 43
 43 43 43 43 73 176 176 176 176 343 343 343 343 343 343 349 349 349 349 59
 289 258 258 258 40 40 212 212 13 43 43 43 43 43 65 65 176 176 38 38
 38 38 343 343 343 349 349 349 206 206 289 289 258 258 40 40 40 13 13 13
 13 13 43 65 65 65 191 38 38 38 38 38 38 38 28 28 206 206 206 206
 206 289 258 40 40 40 21 21 13 13 13 13 65 65 65 65 191 199 199 38
 38 38 38 28 28 28 206 206 206 206 206 289 40 40 40 21 21 21 13 13
 13 256 256 65 65 65 191 199 199 38 38 38 28 28 28 116 116 116 206 206
 294 294 196 196 196 21 21 21 21 13 256 256 256 256 179 179 179 191 199 38
 38 38 28 28 28 116 116 116 116 116 294 294 196 196 196 21 21 21 21 21
 256 256 256 256 179 179 179 179 182 38 146 146 146 28 28 116 116 116 116 116
 294 294 98 98 98 21 21 21 21 21 256 256 256 179 179 179 179 179 182 182
 146 146 146 146 90 90 116 116 116 116 294 294 98 98 98 21 21 21 21 21
 7 256 256 179 179 179 179 182 182 182 146 146 146 146 90 90 90 116 116 294
 294 294 98 98 98 98 21 21 21 21 7 217 217 179 179 179 101 101 101 101
 166 166 166 166 90 90 90 243 243 294 227 227 227 98 98 98 21 21 169 169
 169 169 217 17 17 101 101 101 101 101 166 166 166 166 166 243 243 243 243 243
 227 227 227 227 227 276 276 276 169 169 169 169 169 17 17 17 101 101 101 101
 166 166 166 166 166 243 243 243 243 243 227 227 227 227 276 276 276 276 169 169
 169 169 231 231 17 17 101 101 101 101 166 166 166 166 166 243 243 243 243 243
 147 147 147 227 276 276 276 276 169 169 169 169 231 78 78 78 334 334 91 184
 66 66 268 268 268 243 243 243 243 243 147 147 147 147 37 276 276 276 279 169
 169 169 78 78 78 78 334 334 184 184 184 184 268 268 268 268 210 210 210 147
 147 147 147 37 37 37 37 37 279 279 279 279 78 78 78 78 334 334 184 184
 184 184 268 268 268 268 210 210 210 147 230 147 147 37 37 37 37 37 279 279
 279 279 279 78 334 334 334 334 184 184 184 268 268 268 268 268 96 96 96 230
 230 230 108 37 37 37 37 37 279 279 279 279 126 160 160 334 95 95 95 184
 184 268 268 268 268 96 96 96 96 230 230 108 108 37 37 37 37 27 27 27
 27 126 126 160 160 160 95 95 95 184 184 268 268 268 268 96 96 96 96 96
 230 108 364 364 364 37 27 27 27 27 27 126 126 160 160 160 95 95 95 41
 41 41 41 268 96 96 96 96 96 96 330 330 364 219 364 364 27 27 27 27
 27 126 160 160 160 160 95 95 95 41 41 41 41 41 237 96 96 96 96 96
 330 330 330 364 364 364 27 27 74 74 74 126 160 160 160 160 209 209 209 41
 41 41 41 237 237 237 237 96 330 330 330 330 330 330 330 330 314 74 74 74
 74 74 73 160 160 209 209 209 209 209 41 41 346 346 237 237 237 237 330 330
 330 330 330 330 330 330 314 314 74 74 74 73 73 73 73 209 209 209 209 209
 24 24 24 24 24 237 237 237 330 330 330 330 330 330 330 314 314 314 314 74
 74 73 73 73 73 73 6 6 6 6 24 24 24 24 24 24 356 356 356 356
 59 59 59 59 59 314 314 314 314 314 43 73 73 73 73 73 238 6 6 6
 343 343 24 24 24 24 356 356 356 356 59 59 59 59 59 287 287 287 287 43
 43 43 73 73 73 73 238 238 238 343 343 343 343 343 24 24 356 356 356 59
 59 59 59 59 59 287 287 287 287 43 43 43 43 73 73 73 176 176 176 343
 343 343 343 343 343 343 349 349 356 59 59 59 59 59 287 287 287 287 287 43
 43 43 43 43 73 73 176 176 176 343 343 343 343 343 343 349 349 349 349 59
 59 59 59 59 287 287 287 287 200 43 43 43 43 43 43 176 176 176 176 343
 343 343 343 343 343 343 349 349 349 59 59 258 258 258 40 287 287 287 200 43
 43 43 43 43 43 176 176 176 343 343 343 343 343 343 343 343 349 349 349 19
 289 258 258 258 40 40 40 40 13 43 43 43 43 65 65 65 65 176 343 343
 343 343 343 343 343 107 349 349 206 206 289 258 258 40 40 40 40 40 13 13
 13 43 65 65 65 65 65 191 191 38 38 38 38 28 28 28 206 206 206 206
 206 289 258 40 40 40 40 40 13 13 13 13 65 65 65 65 191 191 191 38
 38 38 28 28 28 28 116 206 206 206 206 40 40 40 40 40 21 21 13 13
 13 256 65 65 65 65 191 191 199 38 38 38 28 28 28 116 116 116 206 206
 294 294 40 40 40 21 21 21 21 7 7 256 256 65 65 179 191 191 191 38
 38 38 28 28 28 116 116 116 116 116 294 294 294 196 196 21 21 21 21 7
 7 256 256 256 179 179 179 179 191 38 38 68 68 28 28 116 116 116 116 116
 294 294 294 98 98 21 21 21 21 7 7 256 256 179 179 179 179 179 182 182
 68 68 68 68 90 116 116 116 116 294 294 294 294 98 98 21 21 21 21 7
 7 7 256 179 179 179 179 179 182 182 68 68 68 68 90 90 116 116 294 294
 294 294 294 98 98 98 21 21 21 7 7 7 7 179 179 179 101 101 101 101
 68 68 68 166 90 90 90 243 294 294 294 294 294 294 98 276 21 21 169 169
 169 169 231 231 17 101 101 101 101 101 166 166 166 166 166 243 243 243 243 294
 294 294 227 227 276 276 276 276 169 169 169 169 231 231 231 101 101 101 101 101
 66 66 66 66 243 243 243 243 243 243 227 227 227 227 276 276 276 276 169 169
 169 169 231 231 231 17 101 101 101 66 66 66 66 66 66 243 243 243 243 243
 147 147 147 147 276 276 276 276 169 169 169 169 231 231 231 78 136 136 136 136
 66 66 66 66 268 243 210 210 243 243 147 147 147 147 276 276 276 276 133 133
 133 133 231 78 78 78 78 136 136 184 184 66 268 268 268 210 210 210 210 147
 147 147 147 37 37 37 276 276 279 279 279 279 78 78 78 78 334 136 184 184
 184 268 268 268 268 268 210 210 210 147 147 147 147 37 37 37 37 37 279 279
 279 279 279 78 334 334 334 136 184 184 184 268 268 268 268 268 96 96 96 96
 96 230 159 37 37 37 37 37 279 279 279 279 153 153 160 160 95 95 95 184
 184 268 268 268 268 96 96 96 96 96 96 108 159 159 159 37 37 37 27 279
 279 279 160 160 160 160 95 95 95 184 184 268 268 268 96 96 96 96 96 96
 96 108 364 364 364 37 37 27 27 27 8 8 160 160 160 160 95 95 95 95
 41 41 41 268 96 96 96 96 96 96 330 330 364 364 364 364 27 27 27 27
 8 8 160 160 160 160 95 95 95 41 41 41 41 237 237 237 96 96 96 96
 330 330 330 364 364 364 364 74 74 74 74 8 160 160 160 160 209 209 209 209
 41 41 41 237 237 237 237 237 330 330 330 330 330 330 330 330 330 74 74 74
 74 8 73 160 160 209 209 209 209 209 41 41 237 237 237 237 237 237 237 330
 330 330 330 330 330 330 314 314 74 74 74 73 73 73 73 209 209 209 209 209
 24 24 24 24 237 237 237 237 237 330 330 330 330 330 330 330 314 314 314 74
 74 73 73 73 73 73 6 6 6 6 24 24 24 24 24 237 237 356 356 356
 59 59 59 59 59 287 287 287 293 293 43 73 73 73 73 73 238 6 6 343
 343 343 24 24 24 356 356 356 356 356 59 59 59 59 59 287 287 287 293 293
 43 43 73 73 73 73 238 238 238 343 343 343 343 343 24 356 356 356 356 59
 59 59 59 59 287 287 287 287 287 293 43 43 43 73 73 73 176 176 176 343
 343 343 343 343 343 343 356 356 356 59 59 59 59 59 287 287 287 200 200 43
 43 43 43 43 73 73 176 176 176 343 343 343 343 343 343 343 349 349 349 59
 19 59 59 287 287 287 287 200 200 43 43 43 43 43 43 176 176 176 176 343
 343 343 343 343 343 343 19 19 19 19 19 19 258 40 40 287 287 287 200 43
 43 43 43 43 43 65 176 176 343 343 343 343 343 343 343 107 19 19 19 19
 19 258 258 40 40 40 40 40 40 43 43 43 65 65 65 65 65 191 191 343
 343 343 343 343 107 107 107 19 19 19 289 258 40 40 40 40 40 40 40 13
 13 65 65 65 65 65 65 191 191 191 372 372 372 28 107 107 107 19 19 19
 206 40 40 40 40 40 40 40 13 13 13 65 65 65 65 65 191 191 191 191
 372 372 372 28 28 107 107 206 206 206 206 40 40 40 40 40 40 40 21 7
 7 7 65 65 65 65 191 191 191 191 372 372 372 28 28 28 116 116 206 206
 294 294 40 40 40 40 40 21 7 7 7 7 7 65 65 65 191 191 191 191
 372 372 372 28 28 116 116 116 116 116 294 294 294 40 40 40 21 21 7 7
 7 7 7 65 65 179 179 191 191 191 68 68 68 68 68 116 116 116 116 294
 294 294 294 294 294 21 21 21 7 7 7 7 7 179 179 179 179 179 191 68
 68 68 68 68 68 116 116 116 294 294 294 294 294 294 294 21 21 21 7 7
 7 7 7 7 179 179 179 179 179 68 68 68 68 68 90 90 116 116 294 294
 294 294 294 294 294 21 21 21 7 7 7 7 7 231 179 179 101 101 101 68
 68 68 68 68 90 90 243 294 294 294 294 294 294 294 294 276 29 29 29 169
 7 7 231 231 231 101 101 101 101 101 68 68 68 66 66 243 243 243 243 294
 294 294 294 294 276 276 29 29 29 169 169 231 231 231 231 231 101 101 101 66
 66 66 66 66 66 243 243 243 243 243 227 227 227 227 276 276 276 276 29 169
 169 169 231 231 231 136 136 136 136 66 66 66 66 66 66 243 243 243 243 243
 147 147 147 147 276 276 276 276 133 133 133 133 231 231 231 136 136 136 136 136
 66 66 66 66 66 210 210 210 243 243 147 147 147 147 276 276 276 276 133 133
 133 133 231 231 231 136 136 136 136 136 66 66 66 66 268 210 210 210 210 147
 168 168 168 37 276 276 276 276 133 133 133 133 78 78 136 136 136 136 136 136
 136 268 268 268 268 268 210 210 210 147 168 168 168 37 37 37 37 37 279 279
 279 279 153 153 153 136 136 136 136 136 184 268 268 268 268 268 96 96 96 96
 168 168 159 159 37 37 37 37 279 279 279 279 153 153 153 153 136 136 136 184
 184 268 268 268 268 96 96 96 96 96 96 168 159 159 159 37 37 134 27 279
 279 8 153 153 153 160 95 95 95 184 184 268 268 268 96 96 96 96 96 96
 96 159 159 159 159 159 134 134 27 27 8 8 8 153 160 160 95 95 95 246
 41 41 41 237 96 96 96 96 96 96 330 330 364 364 364 364 134 134 27 8
 8 8 8 160 160 160 95 209 246 246 41 41 41 237 237 237 237 96 96 96
 330 330 330 330 364 364 364 74 74 74 8 8 8 160 160 160 209 209 209 246
 41 41 237 237 237 237 237 237 237 330 330 330 330 330 330 330 330 74 74 74
 8 8 8 160 160 391 209 209 209 391 41 237 237 237 237 237 237 237 237 330
 330 330 330 330 330 330 30 314 74 74 74 8 73 73 73 391 209 209 209 391
 36 237 237 237 237 237 237 237 237 330 330 330 330 330 330 30 30 30 293 293
 293 73 73 73 73 73 391 391 391 391 36 24 24 24 237 237 237 356 356 356
 59 59 59 59 30 30 30 30 293 293 293 73 73 73 73 73 73 391 391 343
 343 343 24 24 24 356 356 356 356 356 59 59 59 59 287 287 287 30 293 293
 293 43 73 73 73 73 238 238 343 343 343 343 343 343 24 356 356 356 356 356
 59 59 59 59 287 287 287 287 30 293 319 319 319 73 254 254 254 254 176 343
 343 343 343 343 343 343 356 356 19 19 19 19 59 128 287 287 287 287 287 43
 319 319 319 319 254 254 254 254 176 343 343 343 343 343 343 19 19 19 19 19
 19 19 19 128 287 287 287 287 287 43 319 319 319 43 254 254 254 254 176 343
 343 343 343 343 343 19 19 19 19 19 19 19 19 40 40 287 287 287 287 43
 43 43 43 43 65 254 254 254 343 343 343 343 343 343 107 107 19 19 19 19
 19 19 40 40 40 40 40 40 40 341 43 65 65 65 65 65 65 191 191 343
 372 343 372 107 107 107 107 19 19 19 19 40 40 40 40 40 40 40 40 341
 65 65 65 65 65 65 65 191 191 372 372 372 372 372 107 107 107 19 19 19
 19 40 40 40 40 40 40 40 40 13 65 65 65 65 65 65 65 191 191 372
 372 372 372 372 107 107 107 107 19 19 40 40 40 40 40 40 40 40 7 7
 7 7 65 65 65 65 191 191 191 372 372 372 372 372 107 107 107 107 206 206
 294 40 40 40 40 40 40 40 7 7 7 7 7 65 65 65 191 191 191 372
 372 372 372 372 372 116 116 116 116 294 294 294 294 40 40 40 40 21 7 7
 7 7 7 65 65 65 65 191 191 336 68 68 68 68 68 116 116 116 294 294
 294 294 294 294 40 40 21 21 7 7 7 7 7 65 179 10 10 10 10 336
 68 68 68 68 68 354 116 116 294 294 294 294 294 294 294 21 21 21 7 7
 7 7 63 63 179 10 10 10 10 68 68 68 68 68 68 354 116 294 294 294
 294 294 294 294 294 294 29 29 7 7 7 7 63 231 10 10 10 10 10 68
 68 68 68 68 68 90 186 294 294 294 294 294 294 294 294 29 29 29 29 29
 7 7 231 231 231 10 10 10 10 10 68 68 68 68 68 186 186 186 186 294
 294 294 294 294 29 29 29 29 29 29 29 231 231 231 231 136 136 136 136 136
 66 66 66 66 66 186 186 186 186 186 294 294 294 283 276 276 29 29 29 29
 169 231 231 231 231 136 136 136 136 136 66 66 66 66 66 186 186 186 186 186
 168 147 283 283 283 276 276 29 29 133 133 133 231 231 231 136 136 136 136 136
 66 66 66 66 66 186 186 186 186 186 168 168 283 283 283 276 276 276 133 133
 133 133 231 231 136 136 136 136 136 136 66 66 66 66 66 210 186 186 186 168
 168 168 168 283 283 276 276 81 133 133 133 133 231 136 136 136 136 136 136 136
 136 66 66 66 268 57 210 210 210 168 168 168 168 168 37 81 81 81 81 81
 279 279 153 153 136 136 136 136 136 136 136 268 268 268 268 268 96 96 96 168
 168 168 168 159 159 134 134 134 134 279 279 279 153 153 153 136 136 136 136 136
 136 268 268 268 122 96 96 96 158 158 158 168 159 159 159 134 134 134 134 134
 279 8 153 153 153 153 136 136 136 246 246 135 135 122 122 96 96 96 158 158
 345 345 345 159 159 159 134 134 134 134 8 8 8 153 153 160 391 246 246 246
 246 135 135 237 237 96 96 96 158 158 345 345 345 345 159 159 134 134 134 8
 8 8 8 160 160 391 391 391 246 246 246 41 237 237 237 237 237 86 96 158
 345 345 345 330 364 364 134 351 74 8 8 8 8 8 391 391 391 391 391 246
 246 246 237 237 237 237 237 86 237 330 330 330 330 330 330 330 351 351 351 8
 8 8 8 8 391 391 391 391 391 391 36 36 237 237 237 237 237 237 237 46
 46 330 330 330 330 330 30 351 74 74 74 8 73 73 391 391 391 391 391 391
 36 36 36 237 237 237 237 237 237 46 46 46 330 330 317 30 30 30 30 293
 293 73 73 73 391 391 391 391 391 391 36 36 36 36 237 237 237 237 46 46
 46 46 59 317 30 30 30 30 30 293 293 73 73 73 73 391 391 391 391 36
 36 36 36 36 24 237 356 356 356 46 59 59 59 59 287 287 30 30 30 293
 293 43 73 73 73 254 254 254 343 343 343 343 343 343 24 356 356 356 356 356
 19 19 128 128 287 287 287 252 252 252 319 319 319 319 254 254 254 254 366 366
 366 343 343 343 343 52 19 19 19 19 19 19 128 128 128 287 287 252 252 252
 319 319 319 319 254 254 254 254 366 366 366 366 343 343 343 19 19 19 19 19
 19 19 19 128 287 287 287 252 252 252 319 319 319 319 254 254 254 254 366 366
 366 366 343 107 107 107 19 19 19 19 19 19 19 40 40 287 287 252 252 252
 319 319 319 65 254 254 254 254 366 366 366 343 107 107 107 107 19 19 19 19
 19 19 40 40 40 40 40 40 341 341 341 65 65 65 65 65 65 191 366 372
 372 372 107 107 107 107 107 19 19 19 19 40 40 40 40 40 40 40 341 341
 341 65 65 65 65 65 65 191 191 372 372 372 372 107 107 107 107 107 19 19
 19 40 40 40 40 40 40 40 341 341 341 65 65 65 65 65 65 191 191 372
 372 372 372 372 107 107 107 107 19 19 40 40 40 40 40 40 40 40 341 341
 341 7 65 65 65 65 65 191 191 372 372 372 372 372 107 107 107 107 19 19
 294 40 40 40 40 40 40 40 341 7 7 7 65 65 65 65 65 191 191 372
 372 372 372 372 354 354 107 107 116 294 294 294 40 40 40 40 40 40 7 7
 7 7 7 65 65 65 10 10 336 336 68 68 68 68 354 354 354 354 294 294
 294 294 294 294 40 40 40 21 7 7 7 63 63 63 297 10 10 10 336 336
 68 68 68 68 68 354 354 354 294 294 294 294 294 294 294 40 208 7 7 7
 7 63 63 63 297 10 10 10 10 10 68 68 68 68 68 354 354 294 294 294
 294 294 294 294 294 294 29 275 275 275 275 63 63 297 297 10 10 10 10 10
 68 68 68 68 68 186 186 186 294 294 294 294 294 294 294 29 29 29 29 275
 275 275 63 297 297 10 10 10 10 10 68 68 68 68 68 186 186 186 186 294
 294 294 294 294 29 29 29 29 29 29 275 275 231 231 231 136 136 136 136 136
 66 66 66 393 393 186 186 186 186 186 204 204 283 283 29 29 29 29 29 29
 275 275 231 231 231 136 136 136 136 136 66 66 66 393 393 186 186 186 186 186
 204 204 283 283 283 29 29 29 29 29 133 133 231 231 136 136 136 136 136 136
 66 66 66 66 57 57 186 186 186 204 204 168 283 283 283 29 29 81 81 81
 133 133 231 136 136 136 136 136 136 136 136 66 66 66 57 57 57 186 204 204
 168 168 168 283 283 81 81 81 81 81 133 133 241 136 136 136 136 136 136 136
 136 66 66 66 57 57 57 204 204 204 168 168 168 168 283 81 81 81 81 81
 81 241 241 241 136 136 136 136 136 136 136 268 122 122 122 57 57 204 204 168
 168 168 168 168 168 134 134 134 134 134 358 358 18 153 18 136 136 136 136 136
 136 122 122 122 122 122 385 96 158 158 158 168 168 168 159 134 134 134 134 134
 134 8 153 153 153 153 136 136 136 246 246 135 135 122 122 122 96 96 158 158
 345 345 345 345 159 134 134 134 134 134 134 8 8 153 18 391 391 246 246 246
 246 135 135 135 122 86 86 86 158 158 345 345 345 345 345 134 134 134 134 134
 8 8 8 391 391 391 391 391 246 246 246 135 135 237 237 86 86 86 86 345
 345 345 345 345 345 351 351 351 351 8 8 8 8 391 391 391 391 391 391 246
 246 135 237 237 237 86 86 86 86 46 46 345 345 345 317 351 351 351 351 351
 8 8 8 391 391 391 391 391 391 391 36 36 36 237 237 237 86 86 86 46
 46 46 46 317 317 317 351 351 351 35 35 35 391 391 391 391 391 391 391 391
 36 36 36 36 237 237 86 86 46 46 46 46 46 317 317 317 193 30 35 35
 35 35 35 391 391 391 391 391 391 36 36 36 36 36 36 237 86 86 46 46
 46 46 46 317 317 30 30 30 30 35 35 35 73 73 391 391 391 391 391 36
 36 36 36 36 36 237 356 46 46 46 46 46 46 317 287 287 30 30 30 35
 35 35 73 73 254 254 254 254 391 36 36 36 36 36 36 52 52 356 46 46
 19 128 128 128 128 252 252 252 252 252 319 319 319 319 254 254 254 254 366 366
 366 36 36 36 52 52 52 52 19 19 19 19 128 128 128 252 252 252 252 252
 319 319 319 319 254 254 254 254 366 366 366 366 36 48 48 52 19 19 19 19
 19 19 128 128 128 252 252 252 252 252 319 319 319 319 254 254 254 254 366 366
 366 366 366 107 107 107 19 19 19 19 19 19 19 128 128 252 252 252 252 252
 319 319 319 254 254 254 254 254 366 366 366 366 107 107 107 107 107 19 19 19
 19 19 40 40 40 40 40 252 252 341 341 341 65 65 65 65 254 254 366 366
 366 107 107 107 107 107 107 19 19 19 19 19 40 40 40 40 40 40 341 341
 341 341 65 65 65 65 65 129 129 372 372 372 107 107 107 107 107 107 19 19
 19 40 40 40 40 40 40 341 341 341 341 341 65 65 65 65 65 129 129 372
 372 372 372 107 107 107 107 107 19 19 40 40 40 40 40 40 40 341 341 341
 341 341 65 65 65 65 65 129 129 372 372 372 372 372 107 107 107 107 19 19
 40 40 40 40 40 40 40 341 395 341 341 7 65 65 65 65 10 10 10 372
 372 372 372 68 354 354 354 354 354 19 142 142 40 40 40 40 40 341 395 341
 7 7 7 297 297 10 10 10 10 336 68 68 68 68 354 354 354 354 354 294
 142 142 142 40 40 40 208 208 208 7 7 63 63 297 297 10 10 10 10 336
 68 68 68 68 354 354 354 354 354 294 294 294 294 294 40 208 208 208 208 208
 275 63 63 297 297 10 10 10 10 10 68 68 68 68 68 354 354 354 294 294
 294 294 294 294 294 208 208 208 208 275 275 275 297 297 297 10 10 10 10 10
 68 68 68 68 68 354 186 186 294 294 294 294 294 294 294 29 29 29 275 275
 275 275 297 297 297 10 10 10 10 10 163 68 393 393 393 387 186 186 186 294
 204 4 294 294 29 29 29 29 29 275 275 275 297 297 297 10 10 10 10 163
 163 163 393 393 393 186 186 186 186 186 204 204 283 283 29 29 29 29 29 29
 275 275 231 231 136 136 136 136 136 136 136 393 393 393 393 57 186 186 186 204
 204 204 283 283 283 29 29 29 29 29 275 275 241 136 136 136 136 136 136 136
 136 66 393 393 57 57 57 186 186 204 204 49 283 283 283 81 81 81 81 81
 81 241 241 241 136 136 136 136 136 136 136 66 66 57 57 57 57 57 204 204
 204 168 168 283 283 81 81 81 81 81 81 241 241 241 136 136 136 136 136 136
 136 136 66 57 57 57 57 204 204 204 168 168 168 168 283 81 81 81 81 81
 81 241 241 241 136 136 136 136 136 136 136 14 122 122 122 57 57 204 204 204
 168 168 168 168 168 81 81 81 81 358 358 358 18 18 18 136 136 136 136 136
 136 122 122 122 122 122 385 385 385 158 158 323 168 168 168 134 134 134 358 358
 358 358 18 18 18 18 136 136 136 246 135 135 135 122 122 122 385 385 385 158
 345 345 345 345 159 134 134 134 134 358 358 358 18 18 18 18 391 246 246 246
 135 135 135 135 122 122 385 385 385 158 345 345 345 345 345 134 134 134 134 358
 358 358 18 18 391 391 391 391 246 246 246 135 135 135 237 86 86 86 86 345
 345 345 345 345 317 351 351 351 351 351 8 8 391 391 391 391 391 391 391 246
 246 135 135 135 237 86 86 86 86 46 46 46 317 317 317 351 351 351 351 351
 35 35 391 391 391 391 391 391 391 391 36 36 36 36 237 86 86 86 46 46
 46 46 317 317 317 317 351 351 351 35 35 35 391 391 391 391 391 391 391 36
 36 36 36 36 36 86 86 86 46 46 46 46 317 317 317 317 193 193 35 35
 35 35 35 391 391 391 391 391 391 36 36 36 36 36 36 52 86 86 46 46
 46 46 317 317 317 252 252 193 35 35 35 35 35 391 391 391 391 391 391 36
 36 36 36 36 36 52 52 46 46 46 46 46 317 317 317 252 252 252 252 35
 35 35 35 254 254 254 254 254 366 366 36 36 36 36 52 52 52 52 46 46
 19 128 128 128 128 252 252 252 252 252 35 35 319 254 254 254 254 254 366 366
 366 366 48 48 52 52 52 52 19 19 19 128 128 128 128 252 252 252 252 252
 319 319 319 254 254 254 254 254 366 366 366 366 48 48 48 52 52 19 19 19
 19 19 128 128 128 252 252 252 252 252 319 319 319 254 254 254 254 254 366 366
 366 366 48 48 48 107 19 19 19 19 19 19 130 130 128 252 252 252 252 252
 319 319 319 254 254 254 254 254 366 366 366 366 107 107 107 107 107 19 19 19
 19 130 130 130 40 40 252 252 252 341 341 341 65 65 254 254 254 129 129 366
 366 107 107 107 107 107 107 19 19 19 130 130 130 40 40 40 40 341 341 341
 341 341 65 65 65 129 129 129 129 129 372 372 107 107 107 107 107 107 19 19
 130 130 130 40 40 40 40 341 341 341 341 341 65 65 65 129 129 129 129 129
 372 372 107 107 107 107 107 107 107 19 130 130 40 40 40 40 261 341 341 340
 341 341 65 65 65 129 129 129 129 129 372 372 372 107 107 107 107 107 107 19
 142 142 40 40 40 40 261 395 395 341 341 341 171 171 171 129 129 129 129 129
 372 372 68 354 354 354 354 354 354 19 142 142 142 40 40 40 40 395 395 341
 341 341 297 297 297 10 10 10 10 10 10 68 68 68 354 354 354 354 354 354
 142 142 142 40 40 40 208 208 208 208 190 190 297 297 297 10 10 10 10 10
 10 68 68 68 354 354 354 354 354 142 142 142 142 142 162 208 208 208 208 208
 275 297 297 297 297 10 10 10 10 10 10 68 68 68 354 354 354 354 141 142
 142 294 294 294 162 208 208 208 208 275 275 275 297 297 297 10 10 10 10 10
 163 163 68 68 354 354 354 141 141 141 4 4 4 294 294 29 29 275 275 275
 275 275 297 297 297 10 10 10 10 163 163 163 393 393 387 387 387 186 186 204
 4 4 4 4 29 29 29 29 275 275 275 275 297 125 297 10 10 10 163 163
 163 163 393 393 393 387 387 186 186 204 204 4 4 283 29 29 29 29 29 275
 275 275 125 125 125 136 136 136 136 163 163 393 393 393 393 387 387 186 186 204
 204 49 49 283 283 29 29 29 29 29 275 275 241 125 136 136 136 136 136 136
 136 393 393 393 57 57 57 186 204 204 204 49 49 283 283 81 81 81 81 81
 81 241 241 241 241 136 136 136 136 136 136 14 393 393 57 57 57 204 204 204
 204 204 204 283 283 81 81 81 81 81 81 241 241 241 241 136 136 136 136 136
 14 14 14 393 57 57 57 204 204 204 204 204 168 168 81 81 81 81 81 81
 81 241 241 241 241 136 136 136 136 136 14 14 14 122 122 57 57 390 204 204
 204 323 323 168 168 81 81 81 358 358 358 241 18 18 18 18 136 136 136 136
 14 14 122 122 122 122 385 385 385 204 323 323 323 323 323 134 134 358 358 358
 358 358 18 18 18 18 136 136 136 246 135 135 135 122 122 122 385 385 385 158
 323 323 323 323 323 134 134 358 358 358 358 358 18 18 18 18 391 391 246 246
 135 135 135 135 122 122 385 385 385 158 345 345 345 345 50 50 50 50 358 358
 358 324 18 391 391 391 391 391 391 325 135 135 135 135 135 86 86 86 385 46
 46 345 345 317 317 351 351 351 351 358 324 324 391 391 391 391 391 391 391 325
 135 135 135 135 135 86 86 86 46 46 46 46 317 317 317 317 351 351 351 35
 35 35 391 391 391 391 391 391 391 325 36 36 36 36 36 86 86 86 46 46
 46 46 317 317 317 317 351 351 351 35 35 35 35 391 391 391 391 391 391 36
 36 36 36 36 36 52 86 86 46 46 46 46 317 317 317 317 193 193 193 35
 35 35 35 391 391 391 391 374 391 36 36 36 36 36 52 52 52 46 46 46
 46 46 317 317 317 317 252 193 35 35 35 35 35 391 391 391 391 391 391 36
 36 36 36 36 52 52 52 52 46 46 46 46 317 317 317 252 252 252 252 35
 35 35 35 272 272 272 272 272 366 366 36 36 36 36 52 52 52 52 46 46
 32 32 128 128 332 332 252 252 252 35 35 35 42 42 272 272 272 272 366 366
 366 366 48 48 52 52 52 52 52 52 32 32 128 128 332 332 252 252 252 396
 396 319 42 42 42 254 254 366 366 366 366 366 48 48 48 52 52 52 19 19
 19 32 128 128 332 332 332 252 252 396 396 42 42 42 42 254 254 366 366 366
 366 366 48 48 48 52 52 19 19 19 19 130 130 130 332 332 332 252 252 396
 396 42 42 42 42 254 254 366 366 366 366 366 48 48 107 107 107 19 19 19
 130 130 130 130 130 332 321 321 341 341 341 341 42 42 129 129 129 129 129 129
 366 290 290 290 107 107 107 107 19 19 130 130 130 130 40 40 321 321 341 341
 341 341 23 23 129 129 129 129 129 129 129 290 290 290 107 107 107 107 19 130
 130 130 130 130 40 261 261 261 341 341 341 341 23 23 23 129 129 129 129 129
 129 290 290 290 107 107 107 107 107 130 130 130 130 194 40 261 261 261 341 341
 341 341 23 23 23 129 129 129 129 129 129 372 235 107 107 107 107 107 107 130
 142 142 142 194 40 261 261 261 395 341 341 341 171 171 171 129 129 129 129 129
 129 235 235 235 354 354 354 178 178 130 142 142 142 142 162 162 245 261 341 341
 190 190 171 171 171 10 10 10 10 10 10 68 235 235 354 354 354 178 178 178
 142 142 142 142 162 162 162 208 208 190 190 190 171 171 297 10 10 10 10 10
 10 68 68 235 354 354 354 141 141 142 142 142 142 142 162 162 208 208 208 208
 190 190 297 297 297 10 10 10 10 10 163 163 68 68 354 354 141 141 141 142
 142 142 142 142 162 162 309 208 208 275 275 275 297 297 297 10 10 10 10 163
 163 163 163 163 387 387 141 141 141 141 4 4 4 4 309 309 309 309 275 275
 275 275 297 297 297 10 10 10 163 163 163 163 163 387 387 387 387 387 141 141
 4 4 4 4 4 309 309 309 275 275 275 275 125 125 125 10 10 163 163 163
 163 163 393 393 387 387 387 387 387 204 4 4 4 4 4 29 29 29 275 118
 118 118 125 125 125 125 136 163 163 163 163 163 393 393 387 387 387 387 204 204
 204 4 4 4 283 29 29 29 29 118 118 125 125 125 125 136 136 136 136 163
 163 163 393 393 387 387 387 387 204 204 204 204 204 204 283 81 81 81 81 53
 241 241 241 241 241 136 136 136 136 136 14 14 363 363 57 57 57 204 204 204
 204 204 204 204 283 81 81 81 81 81 241 241 241 241 241 284 284 284 284 14
 14 14 14 363 57 57 57 390 204 204 204 204 204 204 81 81 81 81 81 81
 241 241 241 241 241 284 284 284 284 14 14 14 14 14 122 57 390 390 390 204
 204 323 323 323 81 81 81 81 358 358 358 241 241 241 241 284 284 284 284 14
 14 14 14 122 122 244 390 390 390 204 323 323 323 323 323 50 50 358 358 358
 358 358 18 18 18 18 284 284 284 14 14 14 14 122 122 244 244 385 385 204
 62 62 323 323 50 50 50 50 50 358 358 324 324 18 18 18 391 391 325 135