# vtk DataFile Version 2.0
Data set from IO Version 6.4.197.9a0dee2
ASCII

DATASET RECTILINEAR_GRID
DIMENSIONS 31 31 31
X_COORDINATES 31 float
-4.700000 4.700000 14.099999 23.500000 32.899998 42.299999 51.699997 61.099995 70.500000 79.900002 89.300003 98.699997 108.099998 117.500000 126.899994 136.300003 145.699997 155.099991 164.500000 173.899994 183.300003 
192.699997 202.099991 211.500000 220.899994 230.299988 239.699997 249.099991 258.499969 267.899963 277.299988 
Y_COORDINATES 31 float
-4.700000 4.700000 14.099999 23.500000 32.899998 42.299999 51.699997 61.099995 70.500000 79.900002 89.300003 98.699997 108.099998 117.500000 126.899994 136.300003 145.699997 155.099991 164.500000 173.899994 183.300003 
192.699997 202.099991 211.500000 220.899994 230.299988 239.699997 249.099991 258.499969 267.899963 277.299988 
Z_COORDINATES 31 float
-4.700000 4.700000 14.099999 23.500000 32.899998 42.299999 51.699997 61.099995 70.500000 79.900002 89.300003 98.699997 108.099998 117.500000 126.899994 136.300003 145.699997 155.099991 164.500000 173.899994 183.300003 
192.699997 202.099991 211.500000 220.899994 230.299988 239.699997 249.099991 258.499969 267.899963 277.299988 
CELL_DATA 27000
SCALARS FeatureIds int 1
LOOKUP_TABLE default
 89 89 370 370 210 210 210 210 210 323 323 323 128 128 128 128 128 87 87 87
 140 140 140 140 51 51 51 54 54 54 89 89 370 370 210 210 210 210 210 323
 323 323 128 128 128 128 128 252 252 140 140 140 140 140 51 51 51 54 54 54
 70 70 370 370 210 210 210 210 210 323 323 323 128 128 128 128 128 252 252 140
 140 140 140 140 51 51 51 54 54 70 70 70 70 70 210 210 210 210 210 323
 323 323 128 128 128 128 128 128 252 140 140 140 140 140 51 51 51 54 54 70
 119 119 119 119 119 210 210 210 210 275 275 275 275 128 128 128 128 128 125 125
 125 140 140 310 310 310 310 241 241 241 241 119 119 119 119 38 38 210 210 275
 275 275 275 128 314 314 314 125 125 125 125 298 298 310 310 310 310 241 241 241
 241 119 119 119 38 38 38 38 275 275 275 275 275 275 314 314 314 125 125 125
 125 298 298 298 310 310 310 241 241 241 241 119 119 119 38 38 38 11 11 349
 275 275 275 275 314 314 314 125 125 125 125 298 298 298 292 292 325 325 325 241
 311 311 311 311 38 38 11 11 11 349 349 349 275 58 377 314 125 125 125 125
 305 305 305 305 292 292 325 325 325 325 311 311 311 311 38 11 11 11 11 349
 349 349 58 58 377 377 377 125 125 125 305 305 305 305 292 292 325 325 325 325
 311 311 311 311 11 11 11 11 11 349 349 58 58 58 377 377 377 125 125 305
 305 305 305 305 292 292 325 325 325 325 311 311 311 311 254 254 11 11 296 296
 296 58 58 377 377 377 377 377 105 305 305 305 132 132 292 292 325 325 325 179
 179 179 266 254 254 254 254 295 296 296 296 58 58 377 377 377 377 105 132 132
 132 132 132 132 132 292 325 179 179 179 179 266 266 266 254 254 254 295 295 296
 296 21 355 377 377 377 377 136 132 132 132 132 132 132 291 291 291 179 179 179
 179 266 266 266 254 254 254 331 331 21 21 21 21 263 263 263 136 136 136 136
 132 132 132 132 291 291 291 179 179 179 266 266 266 266 266 254 331 331 331 21
 21 21 21 263 263 263 263 136 136 136 353 353 132 291 291 291 291 179 179 179
 266 266 266 266 266 254 331 331 21 21 21 21 21 263 263 263 263 136 136 136
 353 353 185 291 291 291 291 28 179 266 266 266 266 266 266 254 331 331 21 21
 21 21 21 263 263 263 73 136 136 353 353 185 185 352 352 352 28 28 28 266
 266 266 266 266 266 100 100 100 21 21 21 21 21 263 73 73 73 73 73 353
 353 185 185 352 352 28 28 28 28 211 266 266 266 266 100 100 100 100 100 21
 21 21 21 73 73 73 73 73 73 146 146 146 146 146 352 211 211 211 211 211
 98 98 170 266 100 100 100 100 100 244 244 244 244 73 73 73 73 73 73 146
 146 146 146 146 209 209 209 211 211 211 170 170 170 274 100 100 247 247 247 244
 244 244 244 244 73 73 73 73 243 146 146 146 146 146 209 209 209 209 209 209
 170 170 170 274 274 247 247 247 247 247 244 244 244 244 73 73 243 243 243 146
 146 146 146 146 209 209 209 209 209 209 170 170 274 274 274 247 247 247 247 247
 222 222 222 222 25 25 25 243 243 243 146 146 146 378 209 209 209 209 209 209
 170 170 170 274 274 247 247 247 247 222 222 222 222 222 25 25 25 25 243 303
 398 398 398 378 209 209 209 273 273 273 273 170 170 274 265 12 12 12 109 109
 222 222 222 202 202 25 25 25 303 303 398 398 398 378 245 245 273 273 273 273
 273 273 170 265 265 265 12 12 109 78 78 190 190 202 202 202 202 25 212 212
 212 398 398 398 245 245 245 273 273 273 273 89 89 265 265 265 265 12 78 78
 78 190 190 202 202 202 202 87 212 212 212 212 398 245 245 245 245 273 273 273
 89 89 89 89 265 265 265 210 78 78 78 190 190 202 202 202 87 87 87 212
 212 212 140 250 250 250 245 273 273 273 89 89 89 89 265 210 210 210 210 323
 323 190 190 128 128 128 87 87 87 87 140 140 140 140 250 250 250 54 54 54
 89 89 89 370 210 210 210 210 210 323 323 323 128 128 128 128 128 252 252 140
 140 140 140 140 51 51 51 51 54 386 89 89 370 370 210 210 210 210 210 323
 323 323 128 128 128 128 128 252 252 140 140 140 140 140 51 51 51 51 54 70
 70 70 70 370 210 210 210 210 210 323 323 323 128 128 128 128 128 252 252 140
 140 140 140 140 51 51 51 51 54 70 70 70 70 70 210 210 210 210 210 323
 323 323 128 128 128 128 128 252 252 140 140 140 140 140 51 51 51 51 70 70
 70 70 70 70 70 210 210 210 210 275 275 275 275 128 128 128 128 128 125 125
 125 140 140 310 310 310 310 310 241 241 241 119 119 119 38 38 38 210 327 327
 275 275 275 128 128 128 128 125 125 125 125 298 298 310 310 310 310 310 241 241
 241 119 119 119 38 38 38 327 327 327 327 275 275 275 314 314 125 125 125 125
 125 298 298 298 310 310 310 310 241 241 20 20 20 38 38 38 38 11 11 327
 327 327 275 275 390 390 125 125 125 125 298 298 298 298 292 292 292 292 241 241
 20 20 20 20 38 38 11 11 11 11 349 349 58 58 390 390 125 125 125 125
 305 305 305 292 292 292 292 292 325 20 20 20 20 20 20 11 11 11 11 11
 349 58 58 58 58 377 125 125 125 125 305 305 305 292 292 292 292 292 325 20
 20 20 20 20 20 11 11 11 11 296 296 58 58 58 377 377 377 125 125 305
 305 305 305 292 292 292 292 292 325 20 20 20 20 20 254 254 11 11 296 296
 296 58 58 58 377 377 377 105 105 305 305 305 305 132 292 292 292 325 325 20
 179 20 20 254 254 254 254 254 296 296 296 58 58 377 377 377 105 105 105 132
 132 132 132 132 132 292 292 179 179 179 179 335 335 254 254 254 254 254 296 296
 296 296 355 355 355 377 105 105 105 132 132 132 132 132 291 291 291 179 179 179
 179 335 335 335 254 254 254 331 331 21 21 21 355 355 355 355 136 136 136 132
 132 132 132 132 291 291 291 179 179 179 335 335 335 335 254 254 331 331 331 21
 21 21 21 355 263 263 263 136 136 136 136 132 132 291 291 291 291 291 179 179
 335 335 335 266 266 254 331 331 331 21 21 21 21 263 263 263 263 136 136 136
 136 185 185 185 291 291 291 28 179 179 266 266 266 266 77 77 331 331 21 21
 21 21 21 263 263 73 73 136 136 353 185 185 185 185 291 291 28 28 28 266
 266 266 266 266 77 77 77 100 242 242 242 21 21 73 73 73 73 73 73 285
 185 185 185 185 352 28 28 28 28 28 98 266 266 77 77 77 77 77 242 242
 242 244 244 73 73 73 73 73 73 285 146 146 146 146 146 28 28 28 28 28
 98 98 170 224 224 224 224 224 242 242 244 244 244 73 73 73 73 73 73 146
 146 146 146 146 209 209 209 153 209 98 170 170 170 224 224 224 247 247 247 244
 244 244 244 244 73 73 73 73 73 146 146 146 146 146 209 209 209 153 153 209
 170 170 170 274 274 247 247 247 247 247 244 244 244 244 73 73 73 73 73 146
 146 146 146 146 209 209 209 209 209 170 170 170 274 274 274 247 247 247 247 247
 222 222 222 222 25 25 25 25 243 146 146 146 146 146 209 209 209 209 209 170
 170 170 170 274 194 194 247 247 109 109 222 222 222 222 25 25 25 25 303 303
 398 398 398 378 209 209 209 273 273 273 273 170 170 194 194 194 109 109 109 109
 190 222 222 202 25 25 25 25 303 303 398 398 398 398 245 245 273 273 273 273
 273 170 170 265 265 265 265 109 109 109 190 190 190 190 202 202 25 25 212 212
 212 398 398 245 245 245 245 273 273 273 273 89 89 265 265 265 265 109 109 190
 190 190 190 190 202 289 289 212 212 139 212 212 398 245 245 245 245 273 273 273
 89 89 89 89 265 265 265 210 210 190 190 190 190 190 128 289 289 87 212 212
 212 212 140 245 245 245 245 273 273 273 89 89 89 89 265 210 210 210 210 323
 323 190 190 128 128 128 128 87 87 212 140 140 140 140 51 51 51 54 54 54
 89 89 89 370 210 210 210 210 210 323 323 323 128 128 128 128 128 252 252 140
 140 140 140 140 51 51 51 51 386 386 386 89 370 370 210 210 210 210 210 323
 323 323 128 128 128 128 128 252 252 140 140 140 140 140 51 51 51 51 386 386
 70 70 70 70 210 210 210 210 210 323 323 323 128 128 128 128 128 252 252 140
 140 140 140 140 51 51 51 51 386 386 70 70 70 70 70 210 210 210 210 323
 323 323 128 128 128 128 128 128 252 140 140 140 140 140 51 51 51 386 386 386
 70 70 70 70 70 210 210 210 210 323 323 323 128 128 128 128 128 128 125 125
 140 140 140 310 310 310 310 310 241 241 241 119 119 119 38 38 38 327 327 327
 327 327 275 128 128 128 125 125 125 125 125 298 298 310 310 310 310 310 241 241
 20 20 20 20 38 38 38 327 327 327 327 327 327 128 128 128 125 125 125 125
 125 298 298 298 310 310 310 310 241 241 20 20 20 20 38 38 38 11 327 327
 327 327 327 390 390 390 390 125 125 125 298 298 298 298 292 292 292 292 20 20
 20 20 20 20 38 38 11 11 11 327 327 327 327 390 390 390 390 125 125 125
 305 305 305 305 292 292 292 292 20 20 20 20 20 20 20 11 11 11 11 395
 395 395 58 58 390 390 390 125 125 125 305 305 305 292 292 292 292 292 20 20
 20 20 20 20 20 11 11 11 11 296 296 58 58 58 377 390 390 125 125 305
 305 305 305 305 292 292 292 292 20 20 20 20 20 20 20 254 11 11 296 296
 296 58 58 58 377 377 105 105 105 56 305 305 305 132 292 292 292 292 20 20
 20 20 20 20 254 254 254 11 296 296 296 296 58 355 355 377 105 105 105 105
 132 132 132 132 132 292 292 179 179 179 179 335 335 254 254 254 254 254 296 296
 296 355 355 355 355 355 105 105 105 132 132 132 132 132 291 291 291 179 179 179
 335 335 335 335 254 254 254 331 331 296 296 355 355 355 355 355 105 105 105 132
 132 132 132 132 291 291 291 179 179 179 335 335 335 195 195 254 331 331 331 21
 21 21 355 355 355 263 263 136 136 136 132 132 185 185 291 291 291 291 179 179
 335 335 335 195 195 195 331 331 331 21 21 21 21 263 263 263 73 136 136 136
 185 185 185 185 291 291 291 28 179 179 335 335 195 195 77 77 77 77 242 242
 242 21 21 263 73 73 73 73 285 285 185 185 185 185 291 28 28 28 28 266
 98 266 195 77 77 77 77 77 242 242 242 242 21 73 73 73 73 73 285 285
 185 185 185 185 185 28 28 28 28 28 98 98 98 77 77 77 77 77 242 242
 242 242 244 73 73 73 73 73 285 285 285 185 185 146 146 28 28 28 28 98
 98 98 170 224 224 224 224 224 242 242 242 244 244 73 73 73 73 73 285 285
 146 146 146 146 209 209 209 209 209 98 170 170 170 224 224 224 224 224 247 244
 244 244 244 244 73 73 73 73 73 146 146 146 146 146 209 209 209 209 209 98
 170 170 170 170 224 224 224 247 247 244 244 244 244 244 73 73 73 73 232 146
 146 146 146 146 209 209 209 209 209 170 170 170 170 274 274 224 247 247 247 247
 244 244 244 244 25 25 25 25 232 232 146 146 146 146 209 209 209 209 209 170
 170 170 170 170 194 194 194 247 109 109 222 222 222 25 25 25 25 25 231 232
 398 398 398 146 209 209 209 209 273 273 170 170 170 194 194 194 194 109 109 109
 190 190 190 25 25 25 25 25 303 303 398 398 398 398 209 245 273 273 273 273
 273 170 170 194 194 194 194 109 109 109 190 190 190 190 289 289 289 231 212 212
 212 398 398 398 245 245 245 273 273 273 273 89 89 265 265 265 265 109 109 190
 190 190 190 289 289 289 289 289 212 212 212 212 398 245 245 245 245 273 273 273
 89 89 89 89 265 265 265 210 210 190 190 190 190 289 289 289 289 289 212 212
 212 212 140 245 245 245 245 245 273 273 89 89 89 89 265 210 210 210 210 323
 323 190 190 128 128 289 289 252 252 212 140 140 140 140 51 51 51 386 386 386
 386 386 89 219 210 210 210 3 210 323 323 323 128 128 128 128 128 252 252 140
 140 140 140 140 51 51 51 386 386 386 386 386 386 219 210 210 3 3 3 323
 323 323 128 128 128 128 128 252 252 140 140 140 140 140 51 51 386 386 386 386
 386 386 70 219 210 210 210 3 210 323 323 323 128 128 128 128 128 128 252 140
 140 140 140 140 51 51 386 386 386 386 386 70 70 70 70 210 210 210 199 199
 199 199 128 128 128 128 128 128 252 240 140 140 140 240 51 51 386 386 386 386
 70 70 70 70 358 358 210 210 199 199 199 199 128 128 128 128 128 128 125 125
 240 240 240 240 310 310 310 386 386 386 20 119 20 20 358 358 358 327 327 327
 327 327 327 128 128 128 125 125 125 125 125 240 240 310 310 310 310 310 386 386
 20 20 20 20 358 358 358 327 327 327 327 327 327 128 128 125 125 125 125 125
 125 298 298 298 310 310 310 310 20 20 20 20 20 20 358 358 358 327 327 327
 327 327 327 390 390 390 390 125 125 125 125 305 305 298 387 387 387 387 20 20
 20 20 20 20 358 358 11 11 327 327 327 327 327 390 390 390 390 390 125 125
 305 305 305 305 387 387 387 387 20 20 20 20 20 20 20 11 11 11 395 395
 395 395 395 58 390 390 390 390 125 125 305 305 305 292 387 387 387 387 20 20
 20 20 20 20 20 11 11 11 395 395 395 395 58 58 390 390 196 196 56 56
 305 305 305 305 387 387 387 387 20 20 20 20 20 20 20 254 11 11 296 296
 296 58 58 58 355 196 196 196 56 56 56 305 305 132 387 387 387 387 20 20
 20 20 20 20 254 254 49 49 49 296 296 296 355 355 355 196 196 105 105 56
 132 132 132 132 132 387 387 387 179 179 179 335 20 195 254 254 49 49 49 83
 83 355 355 355 355 355 196 105 105 132 132 132 132 132 132 291 291 257 179 179
 335 335 335 195 195 254 49 49 49 83 83 355 355 355 355 355 105 105 105 132
 132 132 132 132 291 291 291 291 179 179 335 335 195 195 195 195 49 49 49 83
 21 355 355 355 355 355 86 86 136 136 185 185 185 185 291 291 291 291 179 179
 335 195 195 195 195 195 331 331 242 242 21 21 385 385 86 86 86 86 86 136
 185 185 185 185 291 291 291 28 179 179 335 195 195 195 195 77 77 77 242 242
 242 242 242 385 86 86 86 86 285 285 185 185 185 185 291 28 28 28 28 28
 98 195 195 77 77 77 77 77 242 242 242 242 242 86 86 86 86 86 285 285
 285 185 185 185 185 28 28 28 28 28 98 98 195 77 77 77 77 77 242 242
 242 242 244 73 73 73 73 285 285 285 285 185 185 185 185 28 28 362 98 98
 98 98 170 224 224 224 224 77 216 242 242 244 244 73 73 73 73 73 285 285
 285 146 146 146 209 209 209 209 98 98 170 170 170 224 224 224 224 224 216 216
 216 244 244 244 73 73 73 73 285 285 146 146 146 146 209 209 209 209 209 98
 170 170 170 170 224 224 224 224 216 216 216 244 244 244 73 73 73 73 232 232
 146 146 146 146 209 209 209 209 209 170 170 170 170 170 224 224 224 247 247 216
 216 244 244 244 309 231 231 231 232 232 232 146 146 146 209 209 209 209 170 170
 170 170 170 170 194 194 194 194 109 7 7 7 222 231 231 231 231 231 231 232
 232 398 398 146 209 209 209 209 170 170 170 170 170 194 194 194 194 109 109 7
 7 190 190 231 231 231 231 231 231 231 231 398 398 398 209 209 209 273 273 273
 170 170 170 194 194 194 194 109 109 109 190 190 190 289 289 289 231 231 231 231
 231 398 398 398 245 245 245 273 273 273 170 170 170 194 194 194 194 109 109 190
 190 190 190 289 289 289 289 289 231 212 212 212 398 245 245 245 245 273 273 273
 89 284 89 89 265 265 265 210 210 190 190 190 190 289 289 289 289 289 231 212
 212 212 140 343 245 245 245 386 386 386 386 284 284 284 210 210 210 210 210 323
 323 190 289 289 289 289 289 289 252 212 140 140 140 140 51 51 51 386 386 386
 386 284 284 219 219 210 210 3 210 323 151 151 151 128 128 289 289 80 80 140
 140 240 140 140 51 386 386 386 386 386 386 59 219 219 219 210 3 3 3 199
 151 151 151 128 128 128 128 128 252 240 240 240 240 140 51 386 386 386 386 386
 386 386 386 219 219 210 3 3 199 199 199 151 151 128 128 128 128 128 240 240
 240 240 240 240 240 386 386 386 386 386 386 386 386 219 219 210 3 199 199 199
 199 199 151 128 128 128 128 128 240 240 240 240 240 240 240 386 386 386 386 386
 386 386 386 358 358 358 358 199 199 199 199 199 199 128 128 128 128 128 240 240
 240 240 240 240 240 310 386 386 386 386 386 20 20 358 358 358 358 358 327 327
 327 199 199 15 128 128 125 125 125 240 240 240 240 240 310 310 310 386 386 386
 20 20 20 358 358 358 358 358 327 327 327 327 327 15 390 390 125 125 125 125
 240 240 240 240 387 387 387 387 20 20 20 20 20 358 358 358 358 358 327 327
 327 327 327 15 390 390 390 125 125 125 125 305 305 55 387 387 387 387 20 20
 20 20 20 20 358 358 358 358 327 327 327 327 327 390 390 390 390 390 125 125
 305 305 55 55 387 387 387 387 20 20 20 20 20 20 20 358 358 358 395 395
 395 395 133 390 390 390 390 196 196 149 305 305 55 55 387 387 387 387 20 20
 20 20 20 20 20 358 11 11 395 395 395 395 133 133 390 196 196 196 196 56
 305 305 55 55 387 387 387 387 20 20 20 20 20 20 20 49 49 49 49 83
 395 395 58 133 196 196 196 196 196 56 56 305 305 55 387 387 387 387 20 20
 20 20 20 20 49 49 49 49 49 83 83 83 355 355 355 196 196 196 196 56
 56 132 132 257 257 257 257 257 257 20 20 20 20 195 49 49 49 49 49 83
 83 83 355 355 355 196 196 196 196 132 132 132 132 257 257 257 257 257 257 179
 226 335 195 195 195 49 49 49 49 83 83 83 385 385 385 385 196 196 105 132
 132 132 132 257 257 257 257 257 257 179 335 195 195 195 195 49 49 49 49 83
 83 385 385 385 385 86 86 86 86 185 185 185 185 185 257 257 257 257 257 179
 335 195 195 195 195 195 49 49 49 242 242 385 385 385 385 86 86 86 86 86
 185 185 185 185 257 257 257 257 362 179 195 195 195 195 195 77 77 77 242 242
 242 242 385 385 86 86 86 86 86 285 185 185 185 185 185 28 28 362 362 362
 98 195 195 77 77 77 77 77 242 242 242 242 242 86 86 86 86 86 285 285
 285 185 185 185 185 362 362 362 362 362 98 98 195 77 77 77 77 77 216 242
 242 242 242 86 86 86 86 86 285 285 285 285 185 185 185 362 362 362 362 98
 98 170 170 224 224 77 77 77 216 216 216 216 244 86 86 86 86 86 285 285
 285 285 146 146 209 209 362 362 362 98 170 170 170 224 224 224 224 224 216 216
 216 216 244 309 309 309 81 81 285 285 285 146 146 146 209 209 209 209 209 170
 170 170 170 170 224 224 224 224 216 216 216 216 244 309 309 309 231 81 232 232
 146 146 146 138 138 209 209 209 209 170 170 170 170 170 224 224 224 224 216 216
 216 216 244 309 309 231 231 231 231 232 232 146 146 138 138 138 209 209 170 170
 170 170 170 170 194 194 194 194 7 7 7 7 7 231 231 231 231 231 231 231
 232 232 398 138 138 209 209 209 170 170 170 170 170 170 194 194 194 194 7 7
 7 7 7 231 231 231 231 231 231 231 231 231 398 138 138 321 321 273 273 170
 170 170 170 194 194 194 194 194 7 7 7 190 190 289 289 231 231 231 231 231
 231 231 343 343 245 321 321 273 273 273 284 284 284 194 194 194 194 337 7 7
 190 190 190 289 289 289 289 231 231 231 231 231 343 343 245 245 321 386 386 386
 284 284 284 284 337 337 337 337 337 190 190 190 289 289 289 289 289 289 231 231
 231 343 343 343 343 245 245 386 386 386 284 284 284 284 210 210 337 337 210 323
 323 190 289 289 289 289 289 289 231 231 140 343 343 343 343 343 386 386 386 386
 386 284 284 219 219 219 210 3 210 151 151 151 151 151 128 289 80 80 80 80
 240 240 240 240 240 386 386 386 386 386 386 59 219 219 219 219 3 3 199 199
 151 151 151 151 128 128 80 80 240 240 240 240 240 240 240 386 386 386 386 386
 386 59 219 219 219 219 3 199 199 199 199 151 151 151 128 128 128 80 240 240
 240 240 240 240 240 386 386 386 386 386 386 386 219 219 219 219 199 199 199 199
 199 199 151 151 128 128 128 240 240 240 240 240 240 240 240 240 386 386 386 386
 386 386 386 358 358 358 199 199 199 199 199 199 199 15 128 128 128 240 240 240
 240 240 240 240 240 240 386 386 386 386 386 386 386 358 358 358 358 358 199 199
 199 199 15 15 15 128 330 240 240 240 240 240 240 240 240 387 387 386 386 386
 20 20 20 358 358 358 358 358 327 327 327 327 15 15 15 390 330 330 125 240
 240 240 240 240 387 387 387 387 386 386 20 20 20 358 358 358 358 358 327 327
 327 327 15 15 15 390 390 125 125 149 149 240 55 55 387 387 387 387 387 20
 20 20 20 20 358 358 358 358 327 327 327 327 133 133 133 133 390 390 149 149
 149 149 55 55 387 387 387 387 387 20 20 20 20 20 358 358 358 358 395 395
 395 133 133 133 133 133 196 196 149 149 149 149 55 55 387 387 387 387 387 20
 20 20 20 20 20 358 358 49 395 395 395 133 133 133 133 196 196 196 196 149
 149 149 55 55 387 387 387 387 387 20 20 20 20 20 20 49 49 49 49 83
 83 83 133 133 133 196 196 196 196 196 149 149 257 257 257 387 387 387 387 20
 20 20 20 20 49 49 49 49 49 83 83 83 385 385 196 196 196 196 196 196
 196 132 257 257 257 257 257 257 257 20 226 226 226 195 49 49 49 49 49 83
 83 83 385 385 385 196 196 196 196 196 33 132 257 257 257 257 257 257 257 226
 226 226 226 195 49 49 49 49 49 83 83 83 385 385 385 385 196 196 33 33
 33 33 257 257 257 257 257 257 257 226 226 226 195 195 195 49 49 49 49 83
 83 385 385 385 385 86 86 86 33 33 33 33 185 257 257 257 257 257 257 226
 226 195 195 195 195 195 49 49 49 312 312 385 385 385 385 86 86 86 86 33
 33 185 185 185 257 257 257 257 257 226 320 195 195 195 195 77 77 77 312 312
 312 385 385 385 86 86 86 86 86 86 185 185 185 185 257 257 362 362 362 362
 320 320 320 77 77 77 77 77 242 312 242 242 385 86 86 86 86 86 86 285
 285 185 185 185 362 362 362 362 362 362 320 320 320 77 77 77 77 77 216 216
 216 216 86 86 86 86 86 86 86 285 285 285 185 185 362 362 362 362 362 362
 320 320 320 320 77 77 77 216 216 216 216 216 216 86 86 86 86 81 81 285
 285 285 146 138 138 362 362 362 362 320 320 320 320 320 224 224 224 216 216 216
 216 216 309 309 309 309 81 81 81 285 285 146 146 138 138 138 362 362 362 170
 170 170 170 170 224 224 224 216 216 216 216 216 309 309 309 309 309 81 81 232
 146 146 138 138 138 138 209 209 93 170 170 170 170 170 224 224 224 216 216 216
 216 216 309 309 309 309 231 231 231 231 231 146 138 138 138 138 209 93 93 93
 170 170 170 170 194 194 194 7 7 7 7 7 309 309 309 231 231 231 231 231
 231 231 318 138 138 138 321 93 93 170 170 170 170 170 194 194 194 194 7 7
 7 7 309 309 231 231 231 231 231 231 231 231 318 318 138 321 321 321 93 170
 170 170 170 170 194 194 194 194 7 7 7 7 7 231 231 231 231 231 231 231
 231 231 343 343 321 321 321 321 386 386 284 284 284 284 337 337 337 337 337 7
 7 7 190 289 289 231 231 231 231 231 231 343 343 343 343 321 321 321 386 386
 284 284 284 284 337 337 337 337 337 337 190 190 289 289 289 289 80 80 80 231
 376 343 343 343 343 321 321 386 386 386 284 284 284 284 284 337 337 337 337 337
 337 190 289 289 289 289 80 80 80 80 376 343 343 343 343 343 386 386 386 386
 386 386 284 219 219 337 337 337 225 151 151 151 151 276 276 276 80 80 80 376
 376 376 376 376 376 386 386 386 386 386 386 386 219 219 219 219 225 225 225 225
 151 151 227 276 276 276 80 80 240 240 240 240 240 240 240 386 386 386 386 386
 386 386 386 219 219 219 225 225 225 199 199 151 151 151 276 128 80 80 240 240
 240 240 240 240 240 240 386 386 386 386 386 386 386 219 219 225 225 225 199 199
 199 199 151 151 128 128 128 240 240 240 240 240 240 240 240 240 386 386 386 386
 386 386 386 358 358 358 225 225 199 199 199 199 199 15 15 15 330 240 240 240
 240 240 240 240 240 240 386 386 386 386 386 386 319 358 358 358 358 358 199 199
 199 199 15 15 15 15 330 330 240 240 240 240 240 240 240 240 386 386 386 386
 319 319 319 358 358 358 358 358 358 327 327 15 15 15 15 15 330 330 330 240
 240 240 240 240 240 387 387 387 386 386 319 319 319 358 358 358 358 358 327 327
 327 15 15 15 15 15 330 330 330 149 149 149 240 55 387 387 387 387 387 253
 319 319 319 358 358 358 358 358 327 327 327 133 133 133 133 133 390 149 149 149
 149 149 55 55 387 387 387 387 387 20 20 20 20 20 358 358 358 358 395 395
 133 133 133 133 133 133 196 149 149 149 149 149 55 55 387 387 387 387 387 20
 20 20 20 20 72 72 72 72 49 315 315 133 133 133 133 133 196 196 149 149
 149 149 55 55 387 387 387 387 387 20 20 20 20 20 72 49 49 49 49 83
 83 315 133 133 133 196 196 196 196 149 149 149 257 257 257 257 257 387 387 20
 226 226 226 226 49 49 49 49 49 83 83 83 133 133 133 196 196 196 196 196
 149 257 257 257 257 257 257 257 257 257 226 226 226 226 49 49 49 49 49 83
 83 83 385 385 385 196 196 196 33 33 33 33 257 257 257 257 257 257 257 226
 226 226 226 226 49 49 49 49 49 83 83 83 385 385 385 385 196 33 33 33
 33 33 257 257 257 257 257 257 257 226 226 226 226 195 195 49 49 49 49 83
 83 385 385 385 385 86 86 86 33 33 33 33 33 257 257 257 257 257 257 226
 226 226 226 195 195 195 49 49 312 312 312 312 385 385 385 86 86 86 86 33
 33 389 389 389 257 257 257 257 257 226 320 320 320 320 195 279 279 312 312 312
 312 312 385 385 86 86 86 86 86 86 389 389 389 389 257 257 257 362 362 187
 320 320 320 320 77 279 279 279 312 312 312 312 86 86 86 86 86 86 86 86
 389 389 389 389 389 362 362 362 362 187 320 320 320 320 77 279 279 216 216 216
 216 216 86 86 86 86 86 86 86 86 389 389 389 389 362 362 362 362 362 187
 320 320 320 320 77 77 77 216 216 216 216 216 309 309 86 86 86 86 86 86
 285 389 389 138 138 362 362 362 362 320 320 320 320 320 224 224 224 216 216 216
 216 216 309 309 309 309 309 81 81 81 285 318 318 138 138 138 362 362 93 320
 93 320 320 320 224 224 224 216 216 216 216 216 309 309 309 309 309 309 231 231
 231 318 318 138 138 138 138 93 93 93 93 170 170 170 41 41 41 216 216 216
 216 216 309 309 309 309 231 231 231 231 231 318 318 318 138 138 138 93 93 93
 93 170 170 170 41 41 41 41 7 7 7 7 309 309 309 231 231 231 231 231
 231 231 318 318 318 138 321 93 93 93 170 170 170 170 41 41 41 41 7 7
 7 7 309 309 231 231 231 231 231 231 231 231 318 318 318 321 321 321 93 93
 386 284 239 239 41 41 41 41 7 7 7 7 309 231 231 231 231 231 231 231
 231 376 343 318 321 321 321 321 93 93 386 284 284 239 337 337 337 337 337 7
 7 7 276 276 231 231 231 231 231 231 376 376 343 343 343 321 321 321 386 386
 386 284 284 284 337 337 337 337 337 337 7 276 276 276 276 80 80 80 80 376
 376 376 343 343 343 321 321 386 386 386 386 284 284 284 337 337 337 337 337 337
 337 276 276 276 276 80 80 80 80 376 376 376 343 343 343 321 321 386 386 386
 386 386 386 219 219 225 225 225 225 225 227 227 276 276 276 276 80 80 80 376
 376 376 376 376 376 376 386 386 386 386 386 386 386 219 219 225 225 225 225 225
 227 227 227 276 276 276 80 80 240 240 240 240 240 240 240 240 386 386 386 386
 386 386 386 219 219 60 225 225 225 225 227 227 227 276 276 276 118 240 240 240
 240 240 240 240 240 240 386 386 386 386 386 386 386 60 60 60 225 225 225 225
 199 199 227 276 276 118 118 240 240 240 240 240 240 240 240 240 386 386 386 386
 386 386 381 381 60 60 225 225 225 225 199 199 15 15 15 15 330 240 240 240
 240 240 240 240 240 240 386 386 386 386 386 319 319 381 358 358 358 225 225 225
 199 15 15 15 15 15 330 330 330 240 240 240 240 240 240 240 386 386 386 386
 319 319 319 358 358 358 358 358 197 197 15 15 15 15 15 15 330 330 330 330
 240 240 240 240 240 387 387 253 253 253 319 319 319 358 358 358 358 358 197 197
 15 15 15 15 15 15 330 330 330 149 149 149 240 240 387 387 387 387 253 253
 319 319 319 358 358 358 358 358 197 315 315 133 133 133 133 133 330 149 149 149
 149 149 164 164 387 387 387 387 253 253 213 213 213 213 72 72 72 72 315 315
 315 133 133 133 133 133 196 149 149 149 149 149 164 164 387 387 387 387 387 253
 213 213 213 72 72 72 72 72 315 315 315 315 133 133 133 133 196 149 149 149
 149 149 164 164 257 257 387 387 387 264 226 213 213 72 72 72 72 72 49 315
 315 315 133 133 133 133 196 196 196 149 149 149 257 257 257 257 257 257 257 264
 226 226 226 72 72 49 49 49 49 379 83 315 133 133 133 196 196 196 221 221
 221 221 257 257 257 257 257 257 257 257 226 226 226 226 49 49 49 49 379 379
 83 27 27 385 385 196 196 196 221 33 33 33 257 257 257 257 257 257 257 226
 226 226 226 226 379 379 379 379 379 379 83 27 385 385 385 385 33 33 33 33
 33 33 33 257 257 257 257 257 257 226 226 226 226 121 121 379 379 379 379 379
 312 385 385 385 385 86 86 33 33 33 33 33 33 257 257 257 257 257 257 226
 226 226 121 121 121 279 379 379 312 312 312 312 385 385 86 86 86 86 33 33
 33 389 389 389 257 257 257 257 257 226 121 121 121 121 279 279 279 279 312 302
 312 312 385 385 86 86 86 86 86 389 389 389 389 389 126 126 126 126 121 121
 320 320 320 320 279 279 279 279 312 312 312 214 86 86 86 86 86 86 86 389
 389 389 389 389 126 126 126 362 187 187 320 320 320 320 279 279 279 14 214 214
 214 214 214 86 86 86 86 86 86 86 389 389 389 389 399 399 362 362 187 187
 320 320 320 320 279 279 14 14 14 214 214 214 309 309 309 309 309 86 86 86
 389 389 389 399 399 399 399 399 187 187 320 320 320 320 320 14 14 14 14 216
 216 216 309 309 309 309 309 309 309 309 389 318 318 399 399 399 399 399 93 93
 93 320 320 320 320 14 14 14 14 216 216 216 309 309 309 309 309 309 231 231
 318 318 318 318 399 399 399 399 93 93 93 93 170 170 41 41 41 14 14 181
 216 309 309 309 309 309 309 231 231 231 231 318 318 318 318 399 399 93 93 93
 93 93 170 35 41 41 41 41 7 7 7 309 309 309 309 309 231 231 231 231
 231 318 318 318 318 399 399 93 93 93 239 239 239 239 41 41 41 41 7 7
 7 7 309 309 309 231 231 231 231 231 231 376 318 318 318 321 321 93 93 93
 239 239 239 239 41 41 41 41 7 7 7 7 276 276 231 231 231 231 231 231
 376 376 376 376 321 321 321 321 93 239 239 239 239 239 239 337 337 337 337 7
 7 276 276 276 276 231 231 231 231 376 376 376 376 343 343 321 321 321 321 239
 239 239 239 239 337 337 337 337 337 90 90 276 276 276 276 276 80 80 376 376
 376 376 376 343 343 321 321 386 386 386 386 386 239 239 337 337 337 337 337 90
 90 276 276 276 276 276 80 80 80 376 376 376 376 376 376 376 321 386 386 386
 386 386 386 189 189 60 225 225 225 90 90 227 276 276 276 276 118 118 376 376
 376 376 376 376 376 376 124 124 124 386 386 386 386 189 60 60 225 225 225 225
 227 227 227 276 276 276 118 118 118 240 240 240 240 240 376 376 124 386 386 386
 386 386 386 60 60 60 60 225 225 225 225 227 227 276 276 118 118 118 240 240
 240 240 240 240 240 240 386 386 386 386 386 386 381 60 60 60 60 225 225 225
 225 227 227 276 118 118 118 118 240 240 240 240 240 240 240 240 386 386 386 386
 386 381 381 381 60 60 60 225 225 225 225 199 15 15 15 118 118 118 240 240
 240 240 240 240 240 240 386 386 386 386 253 381 381 381 381 60 60 225 225 225
 197 15 15 15 15 330 330 330 330 240 240 240 240 240 240 240 253 253 253 253
 253 319 381 381 381 381 358 197 197 197 197 15 15 15 15 15 330 330 330 330
 240 240 240 240 240 322 253 253 253 253 253 319 319 381 381 381 358 197 197 197
 197 315 15 15 15 15 330 330 330 330 149 149 164 164 164 387 387 253 253 253
 253 213 213 213 72 72 72 72 197 197 315 315 133 133 133 133 34 34 149 149
 149 149 164 164 164 164 387 253 253 253 213 213 213 213 72 72 72 72 315 315
 315 315 108 133 133 133 34 34 149 149 149 149 164 164 164 164 387 264 264 264
 264 213 213 72 72 72 72 72 315 315 315 315 108 108 133 133 34 34 149 149