# vtk DataFile Version 2.0
Data set from ImportExport Version 6.5.141.ec284b7a5
ASCII

DATASET RECTILINEAR_GRID
DIMENSIONS 26 26 26
X_COORDINATES 26 float
-3.000000 3.000000 9.000000 15.000000 21.000000 27.000000 33.000000 39.000000 45.000000 51.000000 57.000000 63.000000 69.000000 75.000000 81.000000 87.000000 93.000000 99.000000 105.000000 111.000000 117.000000 
123.000000 129.000000 135.000000 141.000000 147.000000 
Y_COORDINATES 26 float
-3.000000 3.000000 9.000000 15.000000 21.000000 27.000000 33.000000 39.000000 45.000000 51.000000 57.000000 63.000000 69.000000 75.000000 81.000000 87.000000 93.000000 99.000000 105.000000 111.000000 117.000000 
123.000000 129.000000 135.000000 141.000000 147.000000 
Z_COORDINATES 26 float
-3.000000 3.000000 9.000000 15.000000 21.000000 27.000000 33.000000 39.000000 45.000000 51.000000 57.000000 63.000000 69.000000 75.000000 81.000000 87.000000 93.000000 99.000000 105.000000 111.000000 117.000000 
123.000000 129.000000 135.000000 141.000000 147.000000 
CELL_DATA 15625
SCALARS FeatureIds int 1
LOOKUP_TABLE default
 89 89 89 89 89 5 5 3 3 3 3 3 61 61 61 61 61 61 28 28
 28 28 89 89 89 89 89 89 89 89 5 5 3 3 3 3 3 61 61 61
 61 61 28 28 28 28 28 28 89 89 89 89 89 89 89 5 5 3 3 3
 3 3 61 61 61 61 61 28 28 28 28 28 28 28 89 89 89 89 89 89
 5 3 3 3 3 3 19 19 61 61 61 28 28 28 28 28 28 28 28 89
 89 89 89 96 96 96 3 3 3 19 19 19 19 19 61 28 28 28 28 28
 28 28 28 28 28 89 96 96 96 96 96 96 4 4 19 19 19 19 19 19
 28 28 28 28 28 28 28 28 28 28 83 96 96 96 96 96 96 4 4 4
 19 19 19 19 19 28 28 28 28 28 28 28 28 28 28 83 96 96 96 96
 96 96 4 4 4 4 19 19 19 73 73 73 28 28 28 28 28 28 28 83
 83 83 96 96 96 96 4 4 4 74 74 74 74 74 73 73 73 73 73 73
 28 28 28 83 83 83 83 83 96 96 96 4 4 4 74 74 74 74 74 73
 73 73 73 73 73 41 41 41 83 83 83 83 83 83 96 96 4 4 4 74
 74 74 74 74 73 73 73 73 73 73 41 41 41 83 83 83 83 83 83 96
 38 64 64 64 64 64 64 64 64 73 73 73 73 73 73 41 84 84 83 83
 11 11 11 11 11 64 64 64 64 64 64 64 64 64 64 73 73 73 73 15
 84 84 84 84 11 11 11 11 11 11 64 64 64 64 64 64 64 64 64 64
 64 73 15 15 15 84 84 84 84 84 84 11 11 11 11 64 64 64 64 64
 64 64 64 64 64 64 15 15 15 15 25 84 84 84 84 84 11 11 11 64
 64 64 64 64 64 64 64 64 64 64 15 15 15 15 15 15 84 84 84 84
 88 88 11 11 64 64 64 64 64 64 64 64 64 64 64 15 15 15 15 15
 15 88 88 88 88 88 88 88 88 64 64 64 64 64 64 64 64 64 64 64
 15 15 15 15 15 15 88 88 88 88 88 88 88 9 9 9 9 9 64 78
 64 64 64 64 64 15 15 15 15 15 15 88 88 88 88 88 88 89 9 9
 9 9 9 9 9 9 64 64 32 32 32 15 15 15 66 15 88 14 14 14
 89 89 89 89 9 9 9 9 9 9 9 32 32 32 32 32 32 15 15 66
 66 66 14 14 14 89 89 89 89 9 9 9 9 9 9 9 32 32 32 32
 32 32 15 45 45 45 45 14 14 89 89 89 89 89 89 9 9 9 9 9
 9 32 32 32 32 32 2 2 45 45 45 45 89 89 89 89 89 89 89 89
 9 9 9 9 9 32 32 32 32 32 2 2 2 45 45 45 89 89 89 89
 89 89 89 89 89 89 9 9 9 3 3 32 32 32 32 32 32 2 45 45
 45 89 89 89 89 89 89 89 89 89 5 3 3 3 3 3 3 32 61 61
 32 32 32 48 48 28 28 89 89 89 89 89 89 89 89 3 3 3 3 3
 3 3 61 61 61 61 61 61 28 28 28 28 28 89 89 89 89 89 89 89
 5 3 3 3 3 3 3 61 61 61 61 61 28 28 28 28 28 28 28 89
 89 89 89 89 89 3 3 3 3 3 3 3 61 61 61 61 28 28 28 28
 28 28 28 28 28 89 89 96 96 96 96 3 3 3 3 3 3 19 61 61
 28 28 28 28 28 28 28 28 28 28 96 96 96 96 96 96 96 3 3 3
 3 19 19 19 19 28 28 28 28 28 28 28 28 28 28 83 96 96 96 96
 96 96 4 4 4 31 19 19 19 67 67 67 28 28 28 28 28 28 28 28
 83 96 96 96 96 96 4 4 4 4 4 4 19 67 67 67 67 67 28 28
 28 28 28 28 83 83 83 96 96 96 96 4 4 4 74 74 74 74 74 67
 67 67 67 73 28 28 41 28 83 83 83 83 83 96 96 96 4 4 4 74
 74 74 74 74 73 73 73 67 73 41 41 41 41 83 83 83 83 83 83 96
 96 4 4 74 74 74 74 74 74 73 73 73 73 73 41 41 41 41 83 83
 83 83 83 11 11 38 38 38 38 38 64 64 64 64 73 73 73 73 73 41
 41 41 84 11 11 11 11 11 11 11 38 38 38 38 64 64 64 64 64 64
 73 73 15 15 15 15 84 84 11 11 11 11 11 11 38 38 38 38 64 64
 64 64 64 64 64 64 15 15 15 15 15 84 84 84 11 11 11 11 11 38
 38 38 64 64 64 64 64 64 64 64 15 15 15 15 15 15 84 84 84 84
 84 11 11 11 38 38 64 64 64 64 64 64 64 64 64 15 15 15 15 15
 15 84 84 84 84 88 11 11 11 64 64 64 64 64 64 64 64 64 64 64
 15 15 15 15 15 15 88 88 88 84 88 88 11 11 64 64 64 64 64 64
 64 64 64 64 64 15 15 15 15 15 15 88 88 88 88 88 88 88 9 9
 9 9 9 64 64 64 64 64 64 15 15 15 15 15 15 15 88 88 88 88
 88 88 89 9 9 9 9 9 9 9 64 64 32 32 32 32 15 15 15 15
 15 15 14 14 14 14 89 89 89 9 9 9 9 9 9 9 32 32 32 32
 32 32 15 15 45 15 15 14 14 14 89 89 89 89 9 9 9 9 9 9
 9 32 32 32 32 32 32 32 45 45 45 45 14 14 14 89 89 89 89 9
 9 9 9 9 9 9 32 32 32 32 32 32 32 45 45 45 45 14 89 89
 89 89 89 89 89 9 9 9 9 9 32 32 32 32 32 32 32 32 45 45
 45 45 89 89 89 89 89 89 89 89 9 9 9 3 3 3 32 32 32 32
 32 32 32 45 45 45 89 89 89 89 89 89 89 89 89 3 3 3 3 3
 3 3 32 32 32 32 32 32 48 48 48 28 89 89 89 89 89 89 89 89
 3 3 3 3 3 3 3 61 61 61 61 61 48 48 48 48 28 28 89 89
 89 89 89 89 89 3 3 3 3 3 3 3 61 61 61 61 61 28 28 28
 28 28 28 28 89 89 89 89 89 96 3 3 3 3 3 3 3 3 61 61
 61 28 28 28 28 28 28 28 28 28 85 89 96 96 96 96 3 3 3 3
 3 3 3 61 61 28 28 28 28 28 28 28 28 28 28 96 96 96 96 96
 96 96 3 3 3 3 3 3 61 67 67 67 28 28 28 28 28 28 28 28
 83 96 96 96 96 96 96 4 31 31 31 31 31 67 67 67 67 67 28 28
 28 28 28 28 28 83 83 96 96 96 96 4 4 4 31 31 31 31 67 67
 67 67 67 67 28 28 28 28 28 83 83 83 96 96 96 96 4 4 4 74
 74 74 74 67 67 67 67 67 67 28 28 28 28 83 83 83 83 83 96 96
 96 4 4 4 74 74 74 74 74 73 73 73 67 67 28 41 41 41 83 83
 83 83 83 83 96 38 38 38 38 74 74 74 74 74 73 73 73 67 67 41
 41 41 41 83 83 11 11 11 11 11 38 38 38 38 38 38 38 38 38 73
 73 73 67 15 15 41 41 11 11 11 11 11 11 11 11 38 38 38 38 38
 64 64 64 64 64 15 15 15 15 15 15 84 84 11 11 11 11 11 11 38
 38 38 38 38 64 64 64 64 64 64 15 15 15 15 15 15 84 84 84 11
 11 11 11 11 38 38 38 38 64 64 64 64 64 64 64 15 15 15 15 15
 15 84 84 84 11 11 11 11 11 38 38 38 64 64 64 64 64 64 64 64
 15 15 15 15 15 15 84 84 84 84 88 11 11 11 38 38 64 64 64 64
 64 64 64 64 64 15 15 15 15 15 15 15 88 88 84 88 88 11 11 64
 64 64 64 64 64 64 64 64 64 64 15 15 15 15 15 15 15 88 88 88
 88 88 88 9 9 9 9 9 64 64 64 64 64 64 15 15 15 15 15 15
 15 15 88 88 88 88 88 88 9 9 9 9 9 9 9 64 64 32 32 32
 32 15 15 15 15 15 15 14 14 14 14 89 89 9 9 9 9 9 9 9
 9 32 32 32 32 32 32 15 15 15 15 15 14 14 14 89 89 89 89 9
 9 9 9 9 9 9 32 32 32 32 32 32 32 45 45 45 15 14 14 14
 89 89 89 89 9 9 9 9 9 9 32 32 32 32 32 32 32 32 45 45
 45 45 62 62 89 89 89 89 89 89 9 9 9 9 3 32 32 32 32 32
 32 32 32 32 45 45 62 62 62 89 89 89 89 89 89 9 9 3 3 3
 3 32 32 32 32 32 32 32 32 45 45 89 89 89 89 68 89 89 89 89
 3 3 3 3 3 3 32 32 32 32 32 32 32 48 48 48 48 68 68 68
 68 68 68 68 68 3 3 3 3 3 3 3 32 32 32 32 32 48 48 48
 48 48 68 68 68 68 68 68 68 3 3 3 3 3 3 3 3 3 32 32
 32 32 48 48 48 28 28 28 28 68 85 85 85 85 3 3 3 3 3 3
 3 3 3 61 61 32 28 28 28 28 28 28 28 28 28 85 85 85 85 96
 3 3 3 3 3 3 3 3 61 61 28 28 28 28 28 28 28 28 28 28
 85 85 85 96 96 96 95 95 3 3 3 3 3 61 67 67 67 28 28 28
 28 28 28 28 85 85 85 85 96 96 96 95 95 31 31 31 31 31 67 67
 67 67 67 67 28 28 28 28 28 85 83 83 96 96 96 96 95 95 31 31
 31 31 31 67 67 67 67 67 67 28 28 28 28 28 85 83 83 83 96 96
 96 95 95 31 31 31 31 31 67 67 67 67 67 67 28 28 28 28 28 83
 83 83 83 96 96 96 4 4 4 31 31 31 31 67 67 67 67 67 67 28
 28 41 28 83 83 83 83 83 11 11 38 38 38 38 38 38 38 38 38 22
 67 67 67 67 28 41 41 28 83 83 11 11 11 11 11 38 38 38 38 38
 38 38 38 38 38 67 67 67 67 15 15 11 11 11 11 11 11 11 11 11
 38 38 38 38 38 38 64 64 64 18 18 15 15 15 15 15 84 11 11 11
 11 11 11 11 38 38 38 38 38 38 38 64 64 64 18 15 15 15 15 15
 15 84 84 84 11 11 11 11 11 38 38 38 38 38 64 64 64 64 64 18
 15 15 15 15 15 15 15 84 84 11 11 11 11 11 38 38 38 38 64 64
 64 64 64 64 64 15 15 15 15 15 15 15 84 84 11 11 11 11 11 38
 38 64 64 64 64 64 64 64 64 64 15 15 15 15 15 15 15 15 88 88
 88 88 11 11 64 64 64 64 64 64 64 64 64 64 64 15 15 15 15 15
 15 15 15 88 88 88 88 27 27 27 9 9 9 64 64 64 64 64 64 15
 15 15 15 15 15 15 15 15 88 88 88 27 27 27 27 9 9 9 9 9
 64 64 32 32 32 32 15 15 15 15 15 15 15 88 88 27 27 27 27 27
 9 9 9 9 9 9 32 32 32 32 32 32 15 15 15 15 15 15 14 14
 89 27 27 27 27 9 9 9 9 9 32 32 32 32 32 32 32 15 15 15
 15 15 15 14 14 89 89 27 27 27 9 9 9 9 9 32 32 32 32 32
 32 32 32 45 45 15 15 62 62 62 89 89 89 27 27 9 9 9 3 3
 32 32 32 32 32 32 32 32 32 45 45 62 62 62 62 89 89 89 89 89
 9 3 3 3 3 3 32 32 32 32 32 32 32 32 45 45 62 62 62 62
 68 68 68 68 68 68 3 3 3 3 3 32 32 32 32 32 32 32 48 48
 48 48 68 68 68 68 68 68 68 68 3 3 3 3 3 3 3 32 32 32
 32 32 48 48 48 48 48 68 68 68 68 68 68 68 68 3 3 3 3 3
 3 3 3 32 32 32 32 39 39 39 39 28 28 68 68 85 85 85 85 85
 3 3 3 3 3 3 3 3 32 32 32 39 39 39 39 39 28 28 28 68
 85 85 85 85 85 85 3 3 3 3 3 3 3 32 32 32 28 28 28 28
 28 28 28 28 85 85 85 85 85 85 95 95 95 95 3 3 3 3 32 67
 67 67 67 28 28 28 28 28 28 85 85 85 85 85 85 95 95 95 95 31
 31 31 31 67 67 67 67 67 67 28 28 28 28 85 85 85 85 85 85 96
 95 95 95 95 31 31 31 31 67 67 67 67 67 67 28 28 28 28 85 85
 85 85 85 85 96 95 95 95 95 31 31 31 31 22 67 67 67 67 67 28
 28 28 28 76 76 83 83 83 96 96 95 95 95 95 31 31 31 22 22 22
 67 67 67 67 28 28 76 76 76 76 11 11 11 11 11 38 38 38 38 38
 38 38 22 22 22 22 67 67 67 82 82 82 76 76 76 11 11 11 11 11
 38 38 38 38 38 38 38 38 22 22 22 67 67 82 82 82 82 82 11 11
 11 11 11 11 11 38 38 38 38 38 38 38 38 18 18 18 18 15 15 15
 15 82 11 11 11 11 11 11 11 11 38 38 38 38 38 38 64 64 18 18
 18 18 15 15 15 15 15 84 11 11 11 11 11 11 11 38 38 38 38 38
 64 64 64 18 18 18 18 15 15 15 15 15 15 11 11 11 11 11 11 38
 38 38 38 38 64 64 64 64 64 18 18 18 15 15 15 15 15 15 11 11
 11 11 11 11 38 38 38 64 64 64 64 64 64 64 18 18 15 15 15 15
 15 15 15 15 11 88 11 27 27 27 27 64 64 64 64 64 64 64 64 18
 15 15 15 15 15 15 15 15 15 88 88 27 27 27 27 27 9 64 64 64
 64 64 64 32 15 15 15 15 15 15 15 15 15 15 88 27 27 27 27 27
 27 9 9 9 9 64 64 32 32 32 32 15 15 15 15 15 15 15 15 88
 27 27 27 27 27 27 9 9 9 9 9 32 32 32 32 32 32 15 15 15
 15 15 15 14 14 27 27 27 27 27 27 27 9 9 9 32 32 32 32 32
 32 32 32 15 15 15 15 15 14 27 27 27 27 27 27 27 27 9 9 3
 32 32 32 32 32 32 32 32 15 15 15 15 62 62 62 68 68 89 27 27
 27 27 3 3 3 3 32 32 32 32 32 32 32 32 15 15 62 62 62 62
 68 68 89 89 89 27 3 3 3 3 3 32 32 32 32 32 32 32 32 32
 62 62 62 62 68 68 68 68 68 68 27 3 3 3 3 3 32 32 32 32
 32 32 39 39 39 39 68 68 68 68 68 68 68 68 68 68 3 3 3 3
 3 3 32 32 32 32 32 39 39 39 39 39 68 68 68 68 68 68 68 68
 68 3 3 3 3 3 3 3 32 32 32 39 39 39 39 39 39 68 68 68
 68 85 85 68 68 68 3 3 3 3 3 3 3 32 32 39 39 39 39 39
 39 39 39 68 68 85 85 85 85 85 85 3 3 3 3 3 3 3 32 32
 39 39 39 39 39 39 39 39 28 85 85 85 85 85 85 95 95 95 95 3
 3 3 3 59 59 59 39 39 39 39 39 28 28 28 85 85 85 85 85 85
 95 95 95 95 95 31 31 59 59 59 67 67 67 67 28 28 28 28 85 85
 85 85 85 85 85 95 95 95 95 95 31 31 22 22 67 67 67 67 67 28
 28 28 28 85 85 85 85 85 85 95 95 95 95 95 95 31 31 22 22 22
 67 67 67 67 28 28 82 76 76 76 83 83 83 11 95 95 95 95 95 95
 31 22 22 22 22 22 67 67 67 82 82 82 76 76 76 11 11 11 11 11
 38 38 38 38 38 38 22 22 22 22 22 67 67 82 82 82 82 82 76 82
 11 11 11 11 11 38 38 38 38 38 38 38 22 22 22 42 42 82 82 82
 82 82 82 82 11 11 11 11 11 11 38 38 38 38 38 38 38 38 42 42
 42 42 82 82 82 82 82 82 82 11 11 11 11 11 11 38 38 38 38 38
 38 38 38 18 18 18 18 15 15 82 82 82 82 11 11 11 11 11 11 11
 38 38 38 38 38 38 64 64 18 18 18 18 15 15 15 15 15 15 11 11
 11 11 11 11 11 38 38 38 38 64 64 64 64 18 18 18 18 15 15 15
 15 15 15 11 11 11 11 11 11 11 38 38 64 64 64 64 64 64 18 18
 18 18 15 15 15 15 15 15 15 11 11 27 27 27 27 27 27 64 64 64
 64 64 64 64 18 15 15 15 15 15 15 15 15 15 88 27 27 27 27 27
 27 27 64 64 64 64 64 64 32 15 15 15 15 15 15 15 15 15 15 88
 27 27 27 27 27 27 27 27 9 9 64 64 32 32 32 32 15 15 15 15
 15 15 15 15 88 27 27 27 27 27 27 27 27 9 9 9 32 32 32 32
 32 32 15 15 15 15 15 15 15 27 27 27 27 27 27 27 27 27 9 9
 32 32 32 32 32 32 32 32 15 15 15 15 44 44 27 27 27 27 27 27
 27 27 27 9 3 32 32 32 32 32 32 32 32 32 15 15 44 44 44 68
 68 68 27 27 27 27 27 27 3 3 3 32 32 32 32 32 32 32 32 15
 44 44 44 68 68 68 68 68 68 27 27 27 3 3 3 3 32 32 32 32
 32 32 32 32 44 44 44 68 68 68 68 68 68 68 68 68 27 3 3 3
 3 32 32 32 32 32 32 39 39 39 39 39 68 68 68 68 68 68 68 68
 68 3 3 3 3 3 3 32 32 32 32 39 39 39 39 39 39 68 68 68
 68 68 68 68 68 68 3 3 3 3 3 3 3 32 32 39 39 39 39 39
 39 39 68 68 68 68 68 68 68 68 68 3 3 3 3 3 3 3 32 32
 39 39 39 39 39 39 39 39 68 68 85 85 85 85 85 68 95 3 3 3
 3 3 3 59 59 39 39 39 39 39 39 39 39 68 85 85 85 85 85 85
 95 95 95 95 95 3 59 59 59 59 59 39 39 39 39 39 39 28 85 85
 85 85 85 85 85 95 95 95 95 95 95 59 59 59 59 59 67 67 39 39
 39 39 28 85 85 85 85 85 85 85 95 95 95 95 95 95 59 22 22 22
 59 67 67 67 39 28 82 82 85 85 85 85 85 85 95 95 95 95 95 95
 95 22 22 22 22 22 67 67 67 82 82 82 82 76 76 82 85 85 11 95
 95 95 95 95 95 95 22 22 22 22 22 22 82 82 82 82 82 82 76 76
 82 11 11 11 11 38 38 38 38 38 38 22 22 22 22 22 82 82 82 82
 82 82 82 82 82 82 11 11 11 11 38 38 38 38 38 38 22 22 22 22
 42 42 82 82 82 82 82 82 82 82 11 11 11 11 11 38 38 38 38 38
 38 38 22 42 42 42 42 82 82 82 82 82 82 82 82 11 11 11 11 11
 38 38 38 38 38 38 38 42 42 42 42 42 82 82 82 82 82 82 82 11
 11 11 11 11 11 38 38 38 38 38 38 64 18 18 18 18 42 15 15 15
 82 82 82 82 11 80 80 80 80 80 38 38 38 38 64 64 64 64 18 18
 18 18 15 15 15 15 15 15 11 11 80 80 80 80 80 27 27 64 64 64
 64 64 64 18 18 18 18 15 15 15 15 15 15 15 80 80 80 27 27 27
 27 27 64 64 64 64 64 64 18 18 79 79 15 15 15 15 15 15 15 80
 27 27 27 27 27 27 27 17 17 64 64 64 64 79 79 79 79 79 15 15
 15 15 15 15 80 27 27 27 27 27 27 27 17 17 17 64 64 32 32 79
 79 79 79 79 15 15 15 15 15 27 27 27 27 27 27 27 27 27 27 9
 9 32 32 32 32 79 79 79 79 79 15 15 44 44 27 27 27 27 27 27
 27 27 27 27 9 32 32 32 32 32 32 79 79 79 79 79 44 44 44 27
 27 27 27 27 27 27 27 27 27 3 32 32 32 32 32 32 32 79 79 79
 44 44 44 44 44 68 68 27 27 27 27 27 27 3 3 3 32 32 32 32
 32 32 32 32 79 44 44 44 44 44 68 68 68 68 27 27 27 27 3 3
 3 32 32 32 32 32 32 32 32 44 44 44 44 68 68 68 68 68 68 68
 68 27 3 3 3 3 32 32 32 32 32 39 39 39 39 39 44 44 68 68
 68 68 68 68 68 68 68 3 3 3 3 3 32 32 32 39 39 39 39 39
 39 39 68 68 68 68 68 68 68 68 68 68 3 3 3 3 3 23 23 37
 39 39 39 39 39 39 39 68 68 68 68 68 68 68 68 68 68 3 3 3
 3 3 3 59 37 39 39 39 39 39 39 39 39 68 68 68 68 68 68 68
 68 95 95 3 3 3 59 59 59 59 37 37 39 39 39 39 39 39 68 68
 85 85 85 85 85 95 95 95 95 95 59 59 59 59 59 59 37 39 39 39
 39 39 39 85 85 85 85 85 85 85 95 95 95 95 95 59 59 59 59 59
 59 59 39 39 39 39 39 39 85 85 85 85 85 85 85 95 95 95 95 95
 59 59 59 59 59 59 59 39 39 39 82 82 82 82 85 85 85 85 85 95
 95 95 95 95 95 59 59 22 22 22 59 59 82 82 82 82 82 82 82 82
 82 82 85 85 95 95 95 95 95 95 22 22 22 22 22 22 22 82 82 82
 82 82 82 82 82 82 82 11 11 11 38 95 95 95 38 22 22 22 22 22
 22 82 82 82 82 82 82 82 82 82 82 82 11 11 11 38 38 38 38 38
 38 22 22 22 22 42 82 82 82 82 82 82 82 82 82 82 80 80 80 11
 38 38 38 38 38 38 21 22 42 42 42 42 82 82 82 82 82 82 82 82
 80 80 80 80 11 38 38 38 38 38 38 21 42 42 42 42 42 82 82 82
 82 82 82 82 82 80 80 80 80 80 38 38 38 38 38 38 21 42 42 42
 42 42 82 82 82 82 82 82 82 80 80 80 80 80 80 38 38 1 38 64
 64 64 36 18 18 18 18 15 15 15 82 82 82 82 80 80 80 80 80 80
 27 27 1 64 64 64 64 36 18 18 79 79 79 79 15 15 15 15 80 80
 80 80 80 27 27 27 27 17 17 64 64 64 79 79 79 79 79 79 79 79
 15 15 15 80 80 27 27 27 27 27 27 27 17 17 17 64 33 79 79 79
 79 79 79 79 79 79 15 15 80 80 27 27 27 27 27 27 27 17 17 17
 17 33 79 79 79 79 79 79 79 79 79 15 44 27 27 27 27 27 27 27
 27 27 17 17 17 33 33 32 79 79 79 79 79 79 79 79 44 44 44 27
 27 27 27 27 27 27 27 27 27 27 33 32 32 32 79 79 79 79 79 79
 79 44 44 44 44 27 27 27 27 27 27 27 27 27 3 32 32 32 32 32
 79 79 79 79 79 79 44 44 44 44 68 27 27 27 27 27 27 27 27 3
 3 32 32 32 32 32 32 79 79 79 44 44 44 44 44 68 68 68 68 27
 27 27 27 3 3 3 32 32 32 32 32 32 32 79 44 44 44 44 44 68
 68 68 68 68 68 68 68 3 3 3 23 23 23 23 57 57 57 37 39 39
 39 44 44 44 68 68 68 68 68 68 68 68 3 3 3 23 23 23 23 37
 37 37 37 39 39 39 39 68 68 68 68 68 68 68 68 68 68 3 3 3
 3 23 23 23 37 37 37 39 39 39 39 39 68 68 68 68 68 68 68 68
 68 68 71 71 71 71 59 59 59 37 37 37 39 39 39 39 39 39 68 68
 68 68 68 68 68 68 68 95 71 71 59 59 59 59 59 37 37 37 39 39
 39 39 39 68 68 68 68 68 68 68 68 95 95 95 59 59 59 59 59 59
 59 37 37 39 39 39 39 39 39 68 85 85 85 85 85 95 95 90 95 59
 59 59 59 59 59 59 59 37 37 39 39 39 39 85 85 85 85 85 85 90
 90 90 90 90 59 59 59 59 59 59 59 59 59 37 82 82 82 82 82 82
 82 82 85 85 95 95 95 90 95 59 59 59 59 59 59 59 59 82 82 82
 82 82 82 82 82 82 82 82 82 95 95 95 95 95 59 59 59 22 22 22
 59 59 82 82 82 82 82 82 82 82 82 82 82 80 80 1 1 1 1 59
 59 59 22 22 22 59 59 82 82 82 82 82 82 82 82 82 82 82 80 11
 1 1 1 1 1 59 59 22 22 22 59 82 82 82 82 82 82 82 82 82
 82 80 80 80 11 1 1 1 1 1 1 21 21 21 42 42 42 82 82 82
 82 82 82 82 82 80 80 80 80 80 38 1 1 1 1 1 21 21 21 42
 42 42 82 82 82 82 82 82 82 82 80 80 80 80 80 80 1 1 1 1
 1 21 21 21 42 42 42 82 82 82 82 82 82 82 80 80 80 80 80 80
 1 1 1 1 1 1 36 36 36 42 42 72 72 79 82 82 82 82 80 80
 80 80 80 80 80 27 1 1 1 1 1 36 36 36 79 79 79 79 79 79
 79 15 82 80 80 80 80 80 27 27 27 27 17 1 1 1 36 36 79 79
 79 79 79 79 79 79 15 15 80 80 80 27 27 27 27 27 27 17 17 33
 33 33 55 55 55 79 79 79 79 79 79 15 15 80 80 27 27 27 27 27
 27 27 17 17 33 33 33 55 55 55 55 79 79 79 79 79 79 44 27 27
 27 27 27 27 27 27 27 27 27 33 33 33 33 55 55 79 79 79 79 79
 79 44 44 44 27 27 27 27 27 27 27 27 27 27 33 33 33 33 79 79
 79 79 79 79 79 79 44 44 44 44 27 27 27 27 27 27 27 27 27 33
 33 33 33 79 79 79 79 79 79 79 44 44 44 44 44 44 27 27 27 27
 27 27 27 33 33 33 33 32 32 32 79 79 79 79 79 44 44 44 44 44
 68 68 68 68 27 27 27 27 33 33 33 32 32 32 57 57 57 79 79 44
 44 44 44 44 44 68 68 68 68 68 68 68 68 71 71 23 23 23 23 57
 57 57 37 37 37 37 44 44 44 44 68 68 68 68 68 68 68 71 71 71
 23 23 23 23 37 37 37 37 37 37 39 39 44 68 68 68 68 68 68 68
 68 68 71 71 71 71 23 23 23 37 37 37 37 37 39 39 39 68 68 68
 68 68 68 68 68 68 68 71 71 71 71 59 59 59 37 37 37 37 37 39
 39 39 39 68 68 68 68 68 68 68 68 71 71 71 71 59 59 59 59 59
 37 37 37 37 39 39 39 39 68 68 68 53 68 68 68 90 90 90 90 59
 59 59 59 59 59 59 37 37 37 39 39 39 39 68 68 68 53 53 53 90
 90 90 90 90 59 59 59 59 59 59 59 59 37 37 37 39 39 82 82 82
 82 82 53 90 90 90 90 90 90 59 59 59 59 59 59 59 59 59 37 82
 82 82 82 82 82 82 82 82 90 90 90 90 90 90 59 59 59 59 59 59
 59 59 59 82 82 82 82 82 82 82 82 82 82 82 90 90 90 90 90 59
 59 59 59 59 59 59 59 82 82 82 82 82 82 82 82 82 82 82 82 1
 1 1 1 1 59 59 59 59 59 59 59 59 82 82 82 82 82 82 82 82
 82 82 82 80 1 1 1 1 1 1 59 21 21 21 59 59 82 82 82 82
 82 82 82 82 82 82 80 80 80 1 1 1 1 1 1 1 21 21 21 21
 21 82 82 82 82 82 82 82 82 82 80 80 80 80 80 1 1 1 1 1
 1 21 21 21 21 21 72 72 82 82 82 82 82 82 82 80 80 80 80 80
 1 1 1 1 1 1 21 21 21 21 21 72 72 72 82 82 82 82 82 80
 80 80 80 80 80 1 1 1 1 1 1 36 36 36 36 72 72 72 72 82
 82 82 82 80 80 80 80 80 80 80 1 1 1 1 1 1 36 36 36 36
 79 79 79 79 79 79 82 82 80 80 80 80 80 80 80 27 1 1 1 1
 1 36 36 36 79 79 79 79 79 79 79 79 80 80 80 80 80 27 27 27
 27 27 33 33 33 33 33 55 55 55 55 79 79 79 79 79 79 80 80 80
 27 27 27 27 27 27 27 33 33 33 33 33 33 55 55 55 79 79 79 79
 79 79 79 27 27 27 27 27 27 27 27 27 33 33 33 33 33 33 55 55
 55 79 79 79 79 79 44 44 44 27 27 27 27 27 27 27 27 33 33 33
 33 33 33 33 79 79 79 79 79 79 79 44 44 44 44 44 27 27 27 27
 27 27 33 33 33 33 33 33 33 79 79 79 79 79 79 44 44 44 44 44
 44 27 27 27 27 27 27 33 33 33 33 33 33 33 57 79 79 79 79 79
 44 44 44 44 44 44 68 68 68 27 27 27 33 33 33 33 33 23 23 57
 57 57 37 37 37 44 44 44 44 44 68 68 68 68 68 68 68 33 71 71
 23 23 23 23 57 57 57 37 37 37 37 44 44 44 44 68 68 68 68 68
 68 68 71 71 71 23 23 23 23 37 37 37 37 37 37 37 44 44 44 68
 68 68 68 68 68 68 71 71 71 71 71 23 23 23 37 37 37 37 37 37
 37 37 68 68 68 68 68 68 68 68 68 71 71 71 71 71 71 59 59 37
 37 37 37 37 37 37 37 37 68 68 53 53 53 68 68 71 71 71 71 71
 71 59 59 59 59 37 37 37 37 37 37 37 37 68 68 53 53 53 53 90
 90 90 90 90 71 59 59 59 59 59 59 37 37 37 37 37 37 37 53 53
 53 53 53 53 90 90 90 90 90 59 59 59 59 59 59 59 59 37 37 37
 37 37 82 82 82 53 53 53 53 90 90 90 90 90 90 59 59 59 59 59
 59 59 59 37 37 82 82 82 82 82 82 82 53 90 90 90 90 90 90 90
 59 59 59 59 59 59 59 59 82 82 82 82 82 82 82 82 82 82 90 90
 90 90 90 90 59 59 59 59 59 59 59 59 59 82 82 82 82 82 82 82
 82 63 63 1 1 1 1 1 1 59 59 59 59 59 59 59 59 82 82 82
 82 82 82 82 82 82 63 63 1 1 1 1 1 1 1 59 21 21 21 21
 59 82 82 82 82 82 82 82 82 82 80 80 80 80 1 1 1 1 1 1
 1 21 21 21 21 21 82 82 82 82 82 82 82 82 82 80 80 80 80 1
 1 1 1 1 1 1 21 21 21 21 21 72 72 82 82 82 82 82 82 82
 80 80 80 80 1 1 1 1 1 1 1 21 21 21 21 21 72 72 72 6
 82 82 82 82 80 80 80 80 80 1 1 1 1 1 1 1 36 36 36 36
 72 72 72 72 6 6 82 82 80 80 80 80 80 80 1 1 1 1 1 1
 1 36 36 36 36 72 72 72 72 6 6 82 82 80 80 80 80 80 80 80
 1 1 1 1 1 33 36 36 36 36 79 79 79 79 79 79 79 80 80 80
 80 80 27 27 27 27 1 33 33 33 33 33 33 55 55 79 79 79 79 79
 79 79 79 80 80 27 27 27 27 27 27 33 33 33 33 33 33 33 55 55
 55 79 79 79 79 79 79 44 44 27 27 27 27 27 27 27 33 33 33 33
 33 33 33 33 55 79 79 79 79 79 79 44 44 44 27 27 27 27 27 27
 27 33 33 33 33 33 33 33 33 79 79 79 79 79 79 79 44 44 44 44
 44 27 27 27 27 27 33 33 33 33 33 33 33 33 79 79 79 79 79 79
 44 44 44 44 44 44 27 27 27 27 27 33 33 33 33 33 33 33 33 57
 57 57 79 79 79 44 44 44 44 44 44 68 68 68 27 27 33 33 33 33
 33 33 23 23 57 57 57 37 37 37 44 44 44 44 44 44 68 68 68 68
 68 33 33 33 33 33 23 23 23 37 57 37 37 37 37 37 44 44 44 44
 68 68 68 68 68 68 71 71 71 71 71 23 23 23 37 37 37 37 37 37
 37 37 44 44 44 68 68 68 68 68 68 71 71 71 71 71 71 23 23 37
 37 37 37 37 37 37 37 37 68 68 68 86 68 68 26 26 71 71 71 71
 71 71 59 59 37 37 37 37 37 37 37 37 37 68 68 53 53 53 53 26
 26 71 71 71 71 71 59 59 59 59 37 37 37 37 37 37 37 37 53 53
 53 53 53 53 53 90 90 90 90 71 59 59 59 59 59 59 37 37 37 37
 37 37 37 53 53 53 53 53 53 90 90 90 90 90 90 59 59 59 59 59
 59 37 37 37 37 37 37 82 82 53 53 53 53 26 90 90 90 90 90 90
 59 59 59 59 59 59 59 59 37 37 82 82 82 82 82 82 53 53 26 90
 90 90 90 90 90 59 59 59 59 59 59 59 59 82 82 82 82 82 82 82
 82 82 82 1 90 90 90 90 90 59 59 59 59 59 59 59 59 59 82 82
 82 82 82 82 82 63 63 63 1 1 1 1 1 1 1 59 59 59 59 59
 59 59 82 82 82 82 82 82 82 82 63 63 63 1 1 1 1 1 1 1
 1 21 21 21 21 59 59 82 82 82 82 82 82 82 82 63 63 63 1 1
 1 1 1 1 1 1 21 21 21 21 21 72 82 82 82 82 82 82 82 82
 80 80 80 80 1 1 1 1 1 1 1 21 21 21 21 21 72 72 72 82
 82 82 82 82 82 80 80 80 80 1 1 1 1 1 1 1 21 21 21 21
 21 72 72 72 6 6 82 82 82 80 80 80 80 80 1 1 1 1 1 1
 1 36 36 36 36 72 72 72 72 6 6 82 82 80 80 80 80 80 80 1
 1 1 1 1 1 1 36 36 36 36 72 72 72 72 6 6 82 82 80 80
 80 80 80 80 1 1 1 1 1 1 33 33 36 36 36 79 72 72 72 79
 79 79 80 80 80 80 80 80 80 27 1 33 33 33 33 33 33 33 33 79
 79 79 79 79 79 79 79 79 80 80 27 27 27 27 27 33 33 33 33 33
 33 33 33 33 79 79 79 79 79 79 79 79 44 44 44 27 27 27 27 27
 33 33 33 33 33 33 33 33 33 79 79 79 79 79 79 79 44 44 44 44
 27 27 27 27 27 33 33 33 33 33 33 33 33 33 79 79 79 79 79 79
 79 44 44 44 44 44 27 27 27 27 33 33 33 33 33 33 33 33 33 79
 79 79 79 79 79 44 44 44 44 44 44 27 27 27 27 33 33 33 33 33
 33 33 33 33 57 57 50 50 50 50 44 44 44 44 44 44 68 68 68 27
 33 33 33 33 33 33 33 33 33 57 57 57 37 37 37 44 44 44 44 44
 86 86 86 68 68 33 33 33 33 33 33 33 23 23 81 81 81 81 81 81
 81 44 44 44 44 86 86 86 86 86 33 33 71 71 71 71 71 23 37 37
 81 81 81 81 81 37 37 44 44 44 86 86 86 86 86 26 71 71 71 71
 71 71 23 37 37 37 37 37 37 37 37 37 37 86 86 86 86 86 86 26
 26 71 71 71 71 71 71 59 59 37 37 37 37 37 37 37 37 37 86 86
 86 53 86 26 26 26 26 71 71 71 71 59 59 59 59 37 37 37 37 37
 37 37 37 86 86 53 53 53 26 26 26 90 90 90 71 59 59 59 59 59
 59 37 37 37 37 37 37 37 86 86 53 53 53 26 26 90 90 90 90 59
 59 59 59 59 59 59 37 37 37 37 37 37 82 82 86 53 53 26 26 26
 90 90 90 90 90 59 59 59 59 59 59 59 59 37 37 37 82 82 82 82
 75 75 26 26 26 90 90 90 90 90 59 59 59 59 59 59 59 59 82 82
 82 82 82 82 82 82 75 75 1 1 1 1 1 1 1 59 59 59 59 59
 59 59 59 82 82 82 82 82 82 82 63 63 63 1 1 1 1 1 1 1
 1 59 59 59 59 59 59 82 82 82 82 82 82 82 82 63 63 63 1 1
 1 1 1 1 1 1 1 21 21 21 59 59 82 82 82 82 82 82 82 82
 63 63 63 1 1 1 1 1 1 1 1 21 21 21 21 21 72 72 82 82
 82 82 82 82 82 80 80 80 1 1 1 1 1 1 1 1 21 21 21 21
 21 72 72 72 82 82 82 82 82 82 80 80 80 1 1 1 1 1 1 1
 1 21 21 21 21 21 72 72 72 6 6 82 82 82 80 80 80 80 1 1
 1 1 1 1 1 1 36 36 36 36 72 72 72 72 6 6 82 82 80 80
 80 80 80 80 1 1 1 1 1 1 1 36 36 36 36 72 72 72 72 6
 6 6 82 80 80 80 80 80 80 1 1 1 1 1 1 33 33 36 36 36
 72 72 72 72 72 6 6 80 80 80 80 80 80 80 33 33 33 33 33 33
 33 33 33 33 79 79 79 79 79 79 79 79 79 80 80 35 35 35 27 33
 33 33 33 33 33 33 33 33 33 79 79 79 79 79 79 79 79 44 44 35
 35 35 35 35 27 33 33 33 33 33 33 33 33 33 33 79 79 79 79 79
 79 44 44 44 35 35 35 35 35 33 33 33 33 33 33 33 33 33 33 33
 79 50 50 50 50 50 44 44 44 44 35 35 35 27 33 33 33 33 33 33
 33 33 33 33 50 50 50 50 50 50 50 44 44 44 44 44 35 27 27 33
 33 33 33 33 33 33 33 33 33 50 50 50 50 50 50 50 44 44 44 44
 44 68 68 68 33 33 33 33 33 33 33 33 33 33 81 81 81 81 81 81
 50 44 44 44 44 86 86 86 86 86 33 33 33 33 33 33 33 33 81 81
 81 81 81 81 81 81 34 34 34 86 86 86 86 86 86 33 33 33 71 10
 10 10 10 81 81 81 81 81 81 81 81 34 34 86 86 86 86 86 86 86
 26 26 71 71 71 71 71 59 37 81 81 81 81 81 81 81 37 86 86 86
 86 86 86 86 26 26 26 71 71 71 71 59 59 59 37 37 37 37 37 37
 37 37 86 86 86 86 86 86 26 26 26 26 71 71 71 59 59 59 59 59
 37 37 37 37 37 37 37 86 86 86 86 86 26 26 26 26 26 90 90 59
 59 59 59 59 59 59 37 37 37 37 37 37 86 86 86 86 26 26 26 26
 26 90 90 90 59 59 59 59 59 59 59 59 37 37 37 37 43 43 86 86
 26 26 26 26 26 26 90 90 90 59 59 59 59 59 59 59 59 59 37 37
 37 82 82 82 86 75 75 75 26 26 26 90 90 90 59 59 59 59 59 59
 59 59 59 37 82 82 82 82 82 82 75 75 75 1 1 1 1 1 1 1
 59 59 59 59 59 59 59 59 82 82 82 82 82 82 82 75 75 75 1 1
 1 1 1 1 1 1 59 59 59 59 59 59 59 82 82 82 82 82 82 82
 63 63 63 1 1 1 1 1 1 1 1 1 59 59 59 59 59 82 82 82
 82 82 82 82 82 63 63 1 1 1 1 1 1 1 1 1 1 21 20 20
 20 20 72 82 82 82 82 82 82 82 80 80 80 1 1 1 1 1 1 1
 1 1 21 20 20 20 72 72 40 40 40 82 82 82 87 80 80 80 1 1
 1 1 1 1 1 1 1 21 21 21 21 72 72 40 40 40 40 82 87 80
 80 80 80 1 1 1 1 1 1 1 1 1 36 36 36 72 72 72 40 40
 40 40 40 87 80 80 80 80 1 1 1 1 1 1 1 1 1 36 36 36
 72 72 72 72 40 40 40 40 80 80 80 80 80 80 1 1 1 1 1 33
 33 33 33 36 36 30 72 72 72 40 40 40 40 80 80 35 35 35 35 35
 33 33 33 33 33 33 33 33 33 33 79 79 79 79 79 40 40 40 35 35
 35 35 35 35 35 33 33 33 33 33 33 33 33 33 33 79 79 79 79 79
 79 34 34 35 35 35 35 35 35 33 33 33 33 33 33 33 33 33 33 33
 50 50 50 50 50 50 34 34 35 35 35 35 35 35 33 33 33 33 33 33
 33 33 33 33 50 50 50 50 50 50 50 34 34 34 35 35 35 35 35 33
 33 33 33 33 33 33 33 33 33 50 50 50 50 50 50 50 34 34 34 35
 35 35 35 35 33 33 33 33 33 33 33 33 33 33 50 50 50 50 50 50
 34 34 34 34 35 44 35 35 35 33 33 33 33 33 33 33 33 33 33 50
 50 50 50 50 50 34 34 34 34 44 86 86 86 86 86 33 33 33 10 10
 10 10 10 50 50 81 81 81 81 81 34 34 34 34 86 86 86 86 86 86
 86 33 10 10 10 10 10 10 81 81 81 81 81 81 81 81 34 34 86 86
 86 86 86 86 86 26 26 10 10 10 10 10 10 81 81 81 81 81 81 81
 81 81 86 86 86 86 86 86 86 26 26 26 26 71 10 71 59 59 59 37
 37 81 81 81 81 37 37 86 86 86 86 86 86 26 26 26 26 26 71 71
 59 59 59 59 59 37 37 37 37 37 37 37 86 86 86 86 86 26 26 26
 26 26 26 90 59 59 59 59 59 59 59 37 37 37 37 37 43 86 86 86
 86 26 26 26 26 26 26 90 90 59 59 59 59 59 59 59 59 37 37 37
 43 43 43 86 86 26 26 26 26 26 26 26 90 90 59 59 59 59 59 59
 59 59 59 37 43 43 43 43 43 86 75 75 75 26 26 26 1 1 1 59
 59 59 59 59 59 59 59 59 37 43 43 43 43 43 75 75 75 75 75 1
 1 1 1 1 1 59 59 59 59 59 59 59 59 82 82 82 82 82 75 75
 75 75 75 75 1 1 1 1 1 1 1 59 59 59 59 59 59 59 82 82
 82 82 82 87 75 75 75 75 1 1 1 1 1 1 1 1 1 59 20 20
 59 59 82 82 82 82 82 87 87 87 87 75 1 1 1 1 1 1 1 1
 1 1 20 20 20 20 20 40 40 40 40 87 87 87 87 87 87 1 1 1
 1 1 1 1 1 1 1 20 20 20 20 72 40 40 40 40 87 87 87 87
 87 80 1 1 1 1 1 1 1 1 1 1 20 20 20 20 30 40 40 40
 40 40 87 87 87 87 80 1 1 1 1 1 1 1 1 1 1 30 30 30
 30 30 40 40 40 40 40 87 87 87 87 80 1 1 1 1 1 1 1 1
 1 1 30 30 30 30 30 30 40 40 40 40 87 87 87 80 80 80 1 1
 1 1 1 1 33 33 33 33 30 30 30 30 30 40 40 40 40 40 87 35
 35 35 35 35 35 33 33 33 33 33 33 33 33 30 30 30 30 30 30 40
 40 40 40 35 35 35 35 35 35 35 33 33 33 33 33 33 33 33 33 30
 30 30 50 50 50 50 34 35 35 35 35 35 35 35 35 33 33 33 33 33
 33 33 33 33 33 50 50 50 50 50 50 34 35 35 35 35 35 35 35 35
 33 33 33 33 33 33 33 33 33 50 50 50 50 50 50 50 34 34 35 35
 35 35 35 35 35 33 33 33 33 33 33 33 33 33 50 50 50 50 50 50
 34 34 34 34 35 35 35 35 35 35 33 33 33 33 33 33 33 33 50 50
 50 50 50 50 50 34 34 34 34 35 35 35 35 35 33 33 33 33 33 33
 33 33 33 50 50 50 50 50 50 50 34 34 34 34 35 86 86 86 86 86
 86 10 10 10 10 10 10 10 50 50 50 50 50 50 50 34 34 34 34 86
 86 86 86 86 86 86 10 10 10 10 10 10 10 50 50 81 81 81 81 81
 81 34 34 86 86 86 86 86 86 86 26 26 10 10 10 10 10 10 51 51
 51 81 81 81 81 81 34 34 86 86 86 86 86 86 26 26 26 10 10 10
 10 10 51 51 51 51 51 81 81 81 37 37 43 86 86 86 86 86 26 26
 26 26 26 10 10 59 59 59 51 51 51 51 37 37 43 43 43 43 86 86
 86 86 26 26 26 26 26 26 26 59 59 59 59 59 59 51 51 37 43 43
 43 43 43 93 86 86 26 26 26 26 26 26 26 90 59 59 59 59 59 59
 59 59 43 43 43 43 43 43 93 93 26 26 26 26 26 26 26 90 90 59
 59 59 59 59 59 59 59 43 43 43 43 43 43 43 93 75 75 75 26 26
 26 26 1 1 1 59 59 59 59 59 59 59 43 43 43 43 43 43 43 75
 75 75 75 75 1 1 1 1 1 1 59 59 59 59 59 59 59 43 43 43
 43 43 43 43 75 75 75 75 75 1 1 1 1 1 1 1 59 59 77 77
 77 77 77 43 43 43 43 87 87 75 75 75 75 1 1 1 1 1 1 1
 1 1 77 77 77 77 77 40 40 40 87 87 87 87 87 87 75 1 1 1
 1 1 1 1 1 1 1 20 20 20 20 20 40 40 40 40 87 87 87 87
 87 87 1 1 1 1 1 1 1 1 1 1 20 20 20 20 30 40 40 40
 40 87 87 87 87 87 87 1 1 1 1 1 1 1 1 1 1 20 20 20
 30 30 40 40 40 40 40 87 87 87 87 87 1 1 1 1 1 1 1 1
 1 1 30 30 30 30 30 40 40 40 40 40 87 87 87 87 87 1 1 1
 1 1 1 1 1 1 1 30 30 30 30 30 30 40 40 40 40 87 87 87
 87 35 35 1 1 1 1 1 1 33 33 33 30 30 30 30 30 30 40 40
 40 40 40 87 87 35 35 35 35 92 1 33 33 33 33 33 33 33 30 30