# vtk DataFile Version 2.0
Data set from ImportExport Version 6.5.141.ec284b7a5
ASCII

DATASET RECTILINEAR_GRID
DIMENSIONS 26 26 26
X_COORDINATES 26 float
-3.000000 3.000000 9.000000 15.000000 21.000000 27.000000 33.000000 39.000000 45.000000 51.000000 57.000000 63.000000 69.000000 75.000000 81.000000 87.000000 93.000000 99.000000 105.000000 111.000000 117.000000 
123.000000 129.000000 135.000000 141.000000 147.000000 
Y_COORDINATES 26 float
-3.000000 3.000000 9.000000 15.000000 21.000000 27.000000 33.000000 39.000000 45.000000 51.000000 57.000000 63.000000 69.000000 75.000000 81.000000 87.000000 93.000000 99.000000 105.000000 111.000000 117.000000 
123.000000 129.000000 135.000000 141.000000 147.000000 
Z_COORDINATES 26 float
-3.000000 3.000000 9.000000 15.000000 21.000000 27.000000 33.000000 39.000000 45.000000 51.000000 57.000000 63.000000 69.000000 75.000000 81.000000 87.000000 93.000000 99.000000 105.000000 111.000000 117.000000 
123.000000 129.000000 135.000000 141.000000 147.000000 
CELL_DATA 15625
SCALARS FeatureIds int 1
LOOKUP_TABLE default
 20 20 20 20 20 25 25 25 25 25 25 25 1 1 64 64 64 64 64 64
 64 64 64 64 64 20 20 20 20 20 3 25 25 25 25 25 1 1 1 1
 64 64 64 64 64 64 64 64 14 14 20 20 20 20 20 20 3 3 25 25
 1 1 1 1 1 1 1 64 64 64 64 64 14 14 14 20 20 20 20 20
 20 3 3 3 3 1 1 1 1 1 1 1 1 1 1 91 91 14 14 14
 20 20 20 20 20 20 3 3 3 3 1 1 1 1 1 1 1 1 1 1
 1 40 40 40 40 20 20 20 20 20 20 3 3 3 1 1 1 1 1 1
 1 1 1 1 1 40 40 40 40 40 20 20 20 20 20 20 3 3 3 1
 1 1 1 1 1 1 1 1 1 40 40 40 40 40 40 35 35 35 35 35
 35 35 3 3 1 1 1 1 1 1 1 1 1 1 40 40 40 40 40 40
 35 35 35 35 35 35 35 35 1 1 1 1 1 1 1 1 1 17 17 17
 40 40 40 40 40 26 26 35 35 35 35 35 77 77 1 1 1 1 1 1
 1 17 17 17 17 40 40 40 40 26 26 26 26 26 35 35 77 77 77 77
 1 1 1 1 17 17 17 17 17 17 40 40 40 26 26 26 26 26 26 26
 77 77 77 77 77 77 66 66 66 17 17 17 17 17 17 17 40 26 26 26
 26 26 26 26 26 77 77 77 77 77 77 66 66 66 17 17 17 17 17 17
 17 26 26 26 26 26 26 26 26 26 77 77 77 77 77 77 66 66 54 54
 17 17 17 17 17 17 17 26 26 26 26 26 26 26 26 77 77 77 77 55
 55 54 54 54 54 54 17 17 17 17 17 17 26 26 26 26 26 26 26 55
 55 55 55 55 55 55 54 54 54 54 54 54 17 17 17 17 17 26 26 26
 26 26 26 41 41 55 55 55 55 55 55 54 54 54 54 54 54 54 17 17
 17 17 26 26 26 41 41 41 41 41 55 55 55 55 55 55 54 54 54 54
 54 54 54 54 17 17 57 26 26 26 41 41 41 41 41 41 55 55 55 55
 55 54 54 54 54 54 54 54 54 57 57 57 57 57 26 41 41 41 41 41
 41 12 12 12 12 12 54 54 54 54 54 54 54 54 57 57 57 57 57 57
 41 41 41 41 41 41 12 12 12 12 12 54 54 54 54 54 64 64 64 64
 57 57 57 57 57 41 41 41 41 41 41 12 12 12 12 12 54 54 54 54
 64 64 64 64 64 57 57 57 57 57 41 41 41 41 41 41 12 12 12 12
 12 12 31 54 64 64 64 64 64 64 57 57 57 57 57 41 41 41 41 41
 41 12 12 12 12 12 31 31 64 64 64 64 64 64 64 64 57 57 57 57
 41 41 41 41 41 41 12 12 12 12 12 31 31 64 64 64 64 64 64 64
 64 57 57 57 57 20 20 20 20 25 25 25 25 25 25 25 25 1 1 1
 64 64 64 64 64 64 64 64 14 14 20 20 20 20 20 25 25 25 25 25
 25 1 1 1 1 1 64 64 64 64 75 75 14 14 14 20 20 20 20 20
 20 25 25 25 25 25 1 1 1 1 1 1 1 1 75 75 75 14 14 14
 20 20 20 20 20 20 25 25 25 25 1 1 1 1 1 1 1 1 1 1
 91 91 14 14 14 20 20 20 20 20 20 20 25 25 1 1 1 1 1 1
 1 1 1 1 1 91 40 40 40 40 20 20 20 20 20 20 20 3 3 1
 1 1 1 1 1 1 1 1 1 1 40 40 40 40 40 35 35 35 35 35
 35 35 3 3 1 1 1 1 1 1 1 1 1 1 40 40 40 40 40 40
 35 35 35 35 35 35 35 35 1 1 1 1 1 1 1 1 1 1 1 40
 40 40 40 40 40 40 35 35 35 35 35 35 35 1 1 1 1 1 1 1
 1 1 1 17 40 40 40 40 40 40 40 35 35 35 35 35 35 77 77 1
 1 1 1 1 1 1 17 17 17 40 40 40 40 40 40 40 26 26 35 35
 77 77 77 77 77 1 1 1 1 1 17 17 17 17 40 40 40 40 40 40
 26 26 26 26 26 77 77 77 77 77 77 66 66 66 17 17 17 17 17 17
 40 40 40 40 40 26 26 26 26 77 77 77 77 77 77 77 66 66 66 17
 17 17 17 17 17 17 40 40 40 26 26 26 26 26 77 77 77 77 77 77
 77 66 66 54 54 17 17 17 17 17 17 40 40 26 26 26 26 26 26 77
 77 77 77 77 55 55 54 54 54 54 54 17 17 17 17 17 17 26 26 26
 26 26 26 41 55 55 55 55 55 55 55 54 54 54 54 54 54 17 17 17
 17 17 26 26 26 26 41 41 41 41 55 55 55 55 55 55 54 54 54 54
 54 54 54 17 17 17 17 26 26 26 41 41 41 41 41 41 55 55 55 55
 55 54 54 54 54 54 54 54 54 17 57 57 57 26 26 41 41 41 41 41
 41 55 55 55 55 55 54 54 54 54 54 54 54 54 57 57 57 57 57 41
 41 41 41 41 41 41 41 12 12 12 12 54 54 54 54 54 54 54 54 57
 57 57 57 57 57 41 41 41 41 41 41 12 12 12 12 12 54 54 54 54
 54 54 54 64 57 57 57 57 57 57 41 41 41 41 41 41 12 12 12 12
 12 31 31 31 54 64 64 64 64 57 57 57 57 57 57 41 41 41 41 41
 41 12 12 12 12 31 31 31 31 64 64 64 64 64 57 57 57 57 57 57
 41 41 41 41 41 41 12 12 12 12 31 31 31 31 64 64 64 64 64 64
 57 57 57 57 57 41 41 41 41 41 41 12 12 25 25 31 31 31 31 64
 64 64 64 64 64 57 57 57 57 57 20 20 20 20 25 25 25 25 25 25
 25 25 31 31 1 64 64 64 64 75 75 75 75 14 14 20 20 20 20 20
 25 25 25 25 25 25 25 1 1 1 1 64 64 75 75 75 75 14 14 14
 20 20 20 20 20 25 25 25 25 25 25 1 1 1 1 1 1 1 1 75
 75 75 14 14 14 20 20 20 20 20 20 25 25 25 25 1 1 1 1 1
 1 1 1 1 91 91 91 14 14 14 20 20 20 20 20 20 25 25 25 1
 1 1 1 1 1 1 1 1 1 91 91 40 40 40 40 20 20 20 20 20
 20 25 87 25 1 1 1 1 1 1 1 1 1 1 40 40 40 40 40 40
 35 35 35 35 35 35 35 87 87 1 1 1 1 1 1 1 1 1 1 40
 40 40 40 40 40 35 35 35 35 35 35 35 87 87 1 1 1 1 1 1
 1 1 1 1 40 40 40 40 40 40 40 35 35 35 35 35 35 87 87 1
 1 1 1 1 1 1 1 1 40 40 40 40 40 40 40 40 40 35 35 35
 35 35 87 87 87 1 1 1 1 1 1 1 1 40 40 40 40 40 40 40
 40 40 35 35 35 35 35 77 77 77 49 1 1 1 1 17 17 17 40 40
 40 40 40 40 40 40 40 26 26 77 77 77 77 77 77 49 66 66 66 17
 17 17 17 17 40 40 40 40 40 40 40 26 26 26 77 77 77 77 77 77
 77 66 66 66 54 17 17 17 17 17 40 40 40 40 40 26 26 26 88 77
 77 77 77 77 77 77 66 66 54 54 54 17 17 17 17 40 40 40 40 40
 26 26 88 88 88 77 77 77 77 55 55 54 54 54 54 54 54 17 17 17
 17 40 40 40 26 26 26 88 88 88 55 55 55 55 55 55 54 54 54 54
 54 54 54 17 17 17 40 40 40 26 41 41 41 41 41 41 55 55 55 55
 55 54 54 54 54 54 54 54 17 17 17 57 40 26 26 41 41 41 41 41
 41 55 55 55 55 55 54 54 54 54 54 54 2 2 2 57 57 57 57 41
 41 41 41 41 41 41 41 55 55 55 55 54 54 54 54 54 54 2 2 2
 57 57 57 57 41 41 41 41 41 41 41 41 12 12 12 55 54 54 54 54
 54 2 2 2 57 57 57 57 57 41 41 41 41 41 41 41 41 12 12 12
 31 31 31 31 54 54 2 2 2 57 57 57 57 57 57 41 41 41 41 41
 41 12 12 12 12 31 31 31 31 31 54 2 2 57 57 57 57 57 57 57
 41 41 41 41 41 41 12 12 12 12 31 31 31 31 31 31 64 64 64 57
 57 57 57 57 57 41 41 41 41 41 41 12 12 12 31 31 31 31 31 31
 31 64 64 64 57 57 57 57 57 57 41 41 41 41 25 25 25 25 25 25
 31 31 31 31 31 64 64 64 64 57 57 57 57 57 57 20 20 20 20 25
 25 25 25 25 25 25 31 31 31 31 31 75 75 75 75 75 75 75 14 14
 20 20 20 20 25 25 25 25 25 25 25 25 1 1 1 1 75 75 75 75
 75 75 14 14 14 20 20 20 20 20 25 25 25 25 25 25 1 1 1 1
 1 1 1 75 75 75 75 14 14 14 20 20 20 20 20 25 25 25 25 25
 1 1 1 1 1 1 1 1 91 91 91 91 14 14 14 20 20 20 20 20
 20 25 25 25 1 1 1 1 1 1 1 1 1 91 91 91 40 40 40 14
 35 35 35 35 35 87 87 87 87 1 1 1 1 1 1 1 1 1 1 91
 40 40 40 40 40 35 35 35 35 35 35 87 87 87 1 1 1 1 1 1
 1 1 1 1 40 40 40 40 40 40 40 35 35 35 35 35 87 87 87 87
 1 1 1 1 1 1 1 1 40 40 40 40 40 40 40 40 35 35 35 35
 35 87 87 87 87 1 1 1 1 1 1 1 1 40 40 40 40 40 40 40
 40 40 35 35 35 35 87 87 87 87 1 1 1 1 1 1 1 40 40 40
 40 40 40 40 40 40 40 35 35 35 87 87 87 87 87 49 49 49 1 1
 1 48 40 40 40 40 40 40 40 40 40 40 40 35 77 77 77 77 77 49
 49 49 49 51 51 51 51 17 40 40 40 40 40 40 40 40 40 40 77 77
 77 77 77 77 77 49 49 66 51 51 51 51 51 40 40 40 40 40 40 40
 40 40 88 88 77 77 77 77 77 77 39 66 66 51 51 51 51 51 17 40
 40 40 40 40 40 26 88 88 88 88 77 77 77 77 55 55 54 54 54 51
 51 51 51 17 17 40 40 40 40 40 26 88 88 88 88 55 55 55 55 55
 55 54 54 54 54 54 54 54 17 17 40 40 40 40 40 41 41 41 88 41
 41 55 55 55 55 55 54 54 54 54 54 54 2 2 2 2 57 40 40 41
 41 41 41 41 41 41 41 55 55 55 55 84 54 54 54 54 2 2 2 2
 2 57 57 57 41 41 41 41 41 41 41 41 55 55 55 84 84 84 54 54
 2 2 2 2 2 57 57 57 57 41 41 41 41 41 41 41 41 41 12 84
 84 84 84 84 84 2 2 2 2 57 57 57 57 57 41 41 41 41 41 41
 41 41 41 12 31 31 31 31 31 84 2 2 2 2 57 57 57 57 57 57
 41 41 41 41 41 41 41 12 12 31 31 31 31 31 31 2 2 2 57 57
 57 57 57 57 57 41 41 41 41 41 41 41 12 12 31 31 31 31 31 31
 31 2 2 57 57 57 57 57 57 57 41 41 41 41 41 41 25 25 25 31
 31 31 31 31 31 31 2 64 64 57 57 57 57 57 57 41 41 41 41 25
 25 25 25 25 25 31 31 31 31 31 31 31 64 75 75 57 57 57 57 57
 8 20 20 20 25 25 25 25 25 25 25 31 31 31 31 31 75 75 75 75
 75 75 75 75 14 20 20 20 20 25 25 25 25 25 25 25 25 1 1 1
 6 75 75 75 75 75 75 75 14 14 20 20 20 20 25 25 25 25 25 25
 25 1 1 1 1 6 1 75 75 75 75 75 14 14 14 20 20 20 20 20
 25 25 25 25 25 1 1 1 1 1 6 6 1 91 91 91 91 14 14 14
 20 20 20 20 20 87 87 87 87 1 1 1 1 1 1 1 1 1 91 91
 91 91 14 14 14 35 35 35 35 35 87 87 87 87 87 1 1 1 1 1
 1 1 1 91 91 91 40 40 40 40 35 35 35 35 35 35 87 87 87 87
 1 1 1 1 1 1 1 1 1 40 40 40 40 40 40 40 35 35 35 35
 35 87 87 87 87 1 1 1 1 1 1 1 1 40 40 40 40 40 40 40
 40 35 35 35 35 35 87 87 87 87 1 1 1 1 1 1 1 1 40 40
 40 40 40 40 40 40 40 35 35 35 87 87 87 87 87 49 49 1 1 1
 1 48 40 40 40 40 40 40 40 40 40 40 35 35 87 87 87 87 87 49
 49 49 49 1 1 48 48 48 40 40 40 40 40 40 40 40 40 40 35 87
 87 87 87 87 49 49 49 49 51 51 51 51 48 40 40 40 40 40 40 40
 40 40 40 88 77 77 24 24 39 39 49 49 49 51 51 51 51 51 48 40
 40 40 40 40 40 40 13 13 88 88 24 24 24 39 39 39 49 51 51 51
 51 51 51 48 40 40 40 40 40 40 13 13 88 88 88 24 24 24 24 39
 39 39 51 51 51 51 51 51 48 40 40 40 40 40 40 88 88 88 88 88
 24 24 24 24 24 24 84 84 51 51 51 51 2 2 2 40 40 40 40 40
 41 41 41 41 41 41 24 24 24 24 84 84 84 84 84 2 2 2 2 2
 2 40 40 40 40 41 41 41 41 41 41 41 24 24 24 84 84 84 84 84
 2 2 2 2 2 2 57 57 57 41 41 41 41 41 41 41 41 41 24 84
 84 84 84 84 84 2 2 2 2 2 2 57 57 57 41 41 41 41 41 41
 41 41 41 41 84 84 84 84 84 84 2 2 2 2 2 57 57 57 57 41
 41 41 41 41 41 41 41 41 12 31 31 31 31 84 84 2 2 2 2 2
 57 57 57 57 57 41 41 41 41 41 41 41 41 12 31 31 31 31 31 31
 2 2 2 2 57 57 57 57 57 57 41 41 41 41 41 41 41 25 31 31
 31 31 31 31 31 31 2 2 2 57 57 57 57 57 57 41 41 41 41 41
 25 25 25 25 31 31 31 31 31 31 31 2 2 2 57 57 57 57 57 57
 41 41 41 41 25 25 25 25 25 25 31 31 31 31 31 31 31 75 75 75
 75 57 57 57 57 8 8 58 25 25 25 25 25 25 25 25 31 31 31 31
 31 75 75 75 75 75 75 75 8 8 8 20 20 25 25 25 25 25 25 25
 25 1 1 1 1 6 6 75 75 75 75 75 75 14 14 8 20 20 20 25
 25 25 25 25 25 25 1 1 1 6 6 6 75 75 75 75 75 14 14 14
 8 20 20 20 20 25 25 87 87 87 1 1 1 1 6 6 6 91 91 91
 91 91 14 14 14 20 20 20 20 87 87 87 87 87 87 1 1 1 1 1
 6 6 1 91 91 91 91 14 14 14 35 35 35 35 87 87 87 87 87 87
 1 1 1 1 1 1 1 1 91 91 91 40 40 40 40 40 35 35 35 35
 87 87 87 87 87 1 1 1 1 1 1 1 1 91 40 40 40 40 40 40
 40 35 35 35 35 87 87 87 87 87 87 1 1 1 1 1 1 1 40 40
 40 40 40 40 40 40 40 35 35 87 87 87 87 87 87 87 1 1 1 1
 1 1 40 40 40 40 40 40 40 40 40 40 35 87 87 87 87 87 87 87
 49 49 49 1 1 48 48 48 40 40 40 40 40 40 40 40 40 40 87 87
 87 87 87 87 49 49 49 49 48 48 48 48 48 40 40 40 40 40 40 40
 40 40 40 87 87 87 87 87 87 49 49 49 49 48 51 48 48 48 48 40
 40 40 40 40 40 40 13 13 13 24 24 24 24 39 39 49 49 49 51 51
 51 51 48 48 40 40 40 40 40 40 13 13 13 13 24 24 24 24 39 39
 39 49 49 51 51 51 51 48 48 48 40 40 40 40 40 13 13 13 88 24
 24 24 24 24 39 39 39 51 51 51 51 51 51 48 48 40 40 40 40 40
 13 13 88 88 24 24 24 24 24 24 24 84 84 84 51 51 51 48 2 2
 2 40 40 40 40 41 41 41 41 41 24 24 24 24 24 84 84 84 84 84
 84 2 2 2 2 2 2 57 40 40 41 41 41 41 41 41 24 24 24 24
 84 84 84 84 84 2 2 2 2 2 2 2 57 57 41 41 41 41 41 41
 41 41 24 24 84 84 84 84 84 84 2 2 2 2 2 2 57 57 57 41
 41 41 41 41 41 41 41 41 24 84 84 84 84 84 84 2 2 2 2 2
 2 57 57 57 41 15 41 41 41 41 41 41 41 12 84 84 84 84 84 84
 2 2 2 2 2 57 57 57 57 57 15 15 41 41 41 41 41 41 31 31
 31 31 31 31 84 84 2 2 2 2 57 57 57 57 57 15 15 41 41 41
 41 41 25 31 31 31 31 31 31 31 84 2 2 2 57 57 57 57 57 57
 15 15 15 41 41 25 25 25 25 31 31 31 31 31 31 31 2 2 2 57
 57 57 57 57 57 15 15 15 58 25 25 25 25 25 25 31 31 31 31 31
 31 2 75 75 75 75 57 57 57 57 8 8 58 58 58 58 58 25 25 25
 30 30 30 31 31 31 75 75 75 75 75 75 8 8 8 8 8 58 58 58
 58 58 25 25 30 30 30 30 30 30 6 75 75 75 75 75 75 8 8 8
 8 8 58 58 58 58 58 58 25 30 30 30 30 1 6 6 6 75 75 75
 75 75 8 8 8 8 8 58 58 58 58 87 87 87 87 1 1 1 1 6
 6 6 91 91 91 91 8 14 14 14 8 8 87 87 87 87 87 87 87 87
 1 1 1 1 1 6 6 91 91 91 91 91 14 14 14 40 35 35 87 87
 87 87 87 87 87 87 1 1 1 1 1 1 1 91 91 91 40 40 40 40
 40 35 35 87 87 87 87 87 87 87 87 1 1 1 1 1 1 1 91 40
 40 40 40 40 40 40 35 35 87 87 87 87 87 87 87 87 1 1 1 1
 1 1 1 40 40 40 40 40 40 40 40 40 35 87 87 87 87 87 87 87
 87 87 1 1 1 1 1 48 40 40 40 40 40 40 40 40 40 40 87 87
 87 87 87 87 87 87 87 49 48 48 48 48 48 40 40 40 40 40 40 40
 40 40 13 87 87 87 87 87 87 87 49 49 49 48 48 48 48 48 48 40
 40 40 40 40 40 40 13 13 13 87 87 87 87 87 87 49 49 49 48 48
 48 48 48 48 40 40 40 40 40 40 13 13 13 13 24 24 24 24 24 39
 49 49 48 48 48 48 48 48 48 48 40 40 40 40 40 13 13 13 13 24
 24 24 24 24 39 39 49 48 48 51 48 48 48 48 48 40 40 40 40 40
 13 13 13 13 24 24 24 24 24 24 24 24 48 48 51 51 48 48 48 48
 40 40 40 40 13 13 13 13 24 24 24 24 24 24 24 24 84 84 84 48
 48 48 48 48 48 40 40 40 40 13 94 94 94 94 24 24 24 24 24 24
 84 84 84 84 84 84 2 2 2 2 2 2 57 34 13 94 94 94 41 41
 24 24 24 24 24 84 84 84 84 84 84 2 2 2 2 2 2 57 34 34
 94 94 41 41 41 41 24 24 24 84 84 84 84 84 84 84 2 2 2 2
 2 57 57 34 34 15 15 41 41 41 41 41 24 24 84 84 84 84 84 84
 84 2 2 2 2 2 57 57 57 15 15 15 15 41 41 41 41 41 24 84
 84 84 84 84 84 84 2 2 2 2 2 57 57 57 15 15 15 15 15 41
 41 41 41 31 31 84 84 84 84 84 84 2 2 2 2 57 57 57 57 15
 15 15 15 15 41 41 41 25 31 31 31 31 31 31 84 84 2 2 2 2
 57 57 57 57 15 15 15 15 15 58 58 58 25 25 31 31 31 31 31 31
 84 2 2 2 57 57 57 57 57 15 15 15 58 58 58 58 58 25 25 25
 31 31 31 31 31 31 2 75 75 75 75 57 57 8 8 8 8 58 58 58
 58 58 58 58 30 30 30 30 30 30 30 75 75 75 75 75 8 8 8 8
 8 8 58 58 58 58 58 58 58 30 30 30 30 30 30 30 75 75 75 75
 75 8 8 8 8 8 8 58 58 58 58 58 58 58 30 30 30 30 30 30
 6 79 79 75 75 75 8 8 8 8 8 8 58 58 58 58 58 58 87 30
 30 30 30 1 1 6 79 79 91 91 91 8 8 8 8 8 8 58 58 87
 87 87 87 87 87 87 92 1 1 1 1 79 79 91 91 91 8 8 8 8
 8 35 35 87 87 87 87 87 87 87 87 92 1 1 1 1 1 79 91 91
 10 8 40 40 8 40 35 35 87 87 87 87 87 87 87 87 92 1 1 1
 1 1 1 91 40 40 40 40 40 40 40 40 35 87 87 87 87 87 87 87
 87 87 1 1 1 1 1 1 40 40 40 40 40 40 40 40 40 87 87 87
 87 87 87 87 87 87 87 1 1 1 1 48 48 40 40 40 40 40 40 40
 40 40 87 87 87 87 87 87 87 87 87 87 48 48 48 48 48 48 40 40
 40 40 40 40 40 40 40 13 87 87 87 87 87 87 87 87 87 48 48 48
 48 48 48 48 40 40 40 40 40 40 13 13 13 13 87 87 87 87 87 87
 87 87 48 48 48 48 48 48 48 48 40 40 40 40 40 13 13 13 13 24
 24 24 24 24 24 24 49 48 48 48 48 48 48 48 48 74 40 40 40 40
 13 13 13 13 24 24 24 24 24 24 24 24 48 48 48 48 48 48 48 48
 74 40 40 40 13 13 13 13 13 24 24 24 24 24 24 24 24 48 48 48
 48 48 48 48 48 48 74 74 13 13 13 13 13 13 24 24 24 24 24 24
 24 84 84 84 48 48 48 48 48 48 48 74 74 13 13 94 94 94 94 24
 24 24 24 24 24 24 84 84 84 84 84 84 2 2 2 2 2 34 34 13
 94 94 94 41 41 24 24 24 24 24 84 84 84 84 84 84 2 2 2 2
 2 2 34 34 34 94 94 94 41 41 24 24 24 24 84 84 84 84 84 84
 84 2 2 2 2 2 2 34 34 34 15 15 15 41 41 41 24 24 24 84
 84 84 84 84 84 84 2 2 2 2 2 34 34 34 34 15 15 15 15 41
 41 41 24 24 84 84 84 84 84 84 84 2 2 2 2 2 34 34 34 15
 15 15 15 15 41 41 41 41 31 84 84 84 84 84 84 84 84 2 2 2
 2 57 37 37 15 15 15 15 15 58 58 58 58 31 31 84 84 84 84 84
 84 84 2 2 2 57 37 37 37 15 15 15 15 58 58 58 58 58 58 30
 30 31 31 84 84 84 84 2 2 75 57 37 37 37 15 15 15 58 58 58
 58 58 58 58 30 30 30 30 30 30 84 84 75 75 75 75 8 8 8 8
 8 8 58 58 58 58 58 58 58 30 30 30 30 30 30 30 79 75 75 75
 8 8 8 8 8 8 8 58 58 58 58 58 58 58 30 30 30 30 30 30
 30 79 79 75 75 8 8 8 8 8 8 8 58 58 58 58 58 58 58 30
 30 30 30 30 30 79 79 79 79 75 8 8 8 8 8 8 8 58 58 58
 58 58 58 87 30 30 30 30 30 30 79 79 79 79 79 8 8 8 8 8
 8 8 58 58 58 87 87 87 87 87 92 92 92 92 1 1 79 79 79 79
 10 8 8 8 8 8 8 87 87 87 87 87 87 87 87 92 92 92 92 1
 1 79 79 79 10 10 10 10 8 8 40 40 87 87 87 87 87 87 87 87
 92 92 92 92 1 1 1 79 79 10 10 40 40 40 40 40 40 87 87 87
 87 87 87 87 87 87 92 92 92 1 1 1 48 74 74 40 40 40 40 40
 40 40 87 87 87 87 87 87 87 87 87 87 1 1 48 48 48 48 74 74
 74 40 40 40 40 40 40 87 87 87 87 87 87 87 87 87 87 87 48 48
 48 48 48 74 74 74 74 40 40 40 40 13 13 87 87 87 87 87 87 87
 87 87 48 48 48 48 48 48 74 74 74 74 74 40 40 13 13 13 13 87
 87 87 87 87 87 87 87 48 48 48 48 48 48 48 74 74 74 74 74 40
 13 13 13 13 24 24 24 24 24 24 24 48 48 48 48 48 48 48 48 74
 74 74 74 74 74 13 13 13 13 24 24 24 24 24 24 24 24 48 48 48
 48 48 48 48 74 74 74 74 74 74 13 13 13 13 24 24 24 24 24 24
 24 24 48 48 48 48 48 48 48 74 74 74 74 74 13 13 13 13 13 24
 24 24 24 24 24 24 84 84 84 48 48 48 48 48 74 74 74 74 74 13
 94 94 94 94 24 24 24 24 24 24 24 84 84 84 84 84 84 48 48 2
 74 74 74 34 34 94 94 94 94 24 24 24 24 24 24 84 84 84 84 84
 84 84 2 2 2 2 34 34 34 34 34 94 94 41 24 24 24 24 24 84
 84 84 84 84 84 84 84 2 2 2 2 34 34 34 34 15 94 15 41 41
 24 24 24 24 84 84 84 84 84 84 84 84 2 2 2 2 34 34 34 34
 15 15 15 15 15 4 4 45 84 84 84 84 84 84 84 84 84 2 2 2
 2 34 34 34 34 15 15 15 15 15 58 58 45 84 84 84 84 84 84 84
 84 84 2 2 2 37 37 37 37 37 15 15 15 15 58 58 58 58 58 84
 84 84 84 84 84 84 84 84 2 2 37 37 37 37 37 15 15 15 58 58
 58 58 58 58 30 30 30 30 84 84 84 84 84 2 75 37 37 37 37 37
 8 15 58 58 58 58 58 58 58 30 30 30 30 30 30 84 84 84 75 75
 75 8 8 8 8 8 58 58 58 58 58 58 58 58 30 30 30 30 30 30
 30 79 79 79 8 8 8 8 8 8 8 8 58 58 58 58 58 58 58 30
 30 30 30 30 30 79 79 79 79 8 8 8 8 8 8 8 8 58 58 58
 58 58 58 58 30 30 30 30 30 30 79 79 79 79 79 8 8 8 8 8
 8 8 58 58 58 58 58 58 58 30 30 30 30 30 30 79 79 79 79 79
 8 8 8 8 8 8 8 58 58 58 58 87 87 87 87 92 92 92 92 30
 79 79 79 79 79 10 10 10 8 8 8 8 58 87 87 87 87 87 87 87
 92 92 92 92 1 1 79 79 79 10 10 10 10 10 8 8 42 87 87 87
 87 87 87 87 87 92 92 92 92 92 1 79 79 79 10 10 10 10 10 10
 40 42 42 87 87 87 87 87 87 87 92 92 92 92 92 48 48 74 74 74
 74 74 74 74 74 40 42 42 42 87 87 87 87 87 87 87 87 92 92 48
 48 48 74 74 74 74 74 74 74 74 40 42 42 42 87 87 87 87 87 87
 87 87 87 48 48 48 48 74 74 74 74 74 74 74 74 29 29 42 42 87
 87 87 87 87 87 87 87 48 48 48 48 48 74 74 74 74 74 74 74 74
 74 13 29 29 87 87 87 87 87 87 87 48 48 48 48 48 48 48 74 74
 74 74 74 74 74 13 13 13 13 24 24 24 24 24 24 24 48 48 48 48
 48 48 48 74 74 74 74 74 74 74 13 13 13 13 24 24 24 24 24 24
 24 48 48 48 48 48 48 48 74 74 74 74 74 74 74 13 13 13 24 24
 24 24 24 24 24 24 24 48 48 48 48 48 48 61 74 74 74 74 74 74
 13 13 13 24 24 24 24 24 24 24 24 84 84 84 48 48 48 48 48 74
 74 74 74 74 74 94 94 94 24 24 24 24 24 24 24 84 84 84 84 84
 84 84 48 48 74 74 74 74 34 34 94 94 4 4 24 24 24 24 24 24
 84 84 84 84 84 84 84 84 2 2 74 34 34 34 34 34 4 4 4 4
 4 24 24 24 84 84 84 84 84 84 84 84 84 2 2 2 34 34 34 34
 34 4 4 4 4 4 24 24 24 84 84 84 84 84 84 84 84 84 2 2
 34 34 34 34 34 15 15 4 4 4 4 4 45 84 84 84 84 84 84 84
 84 84 84 2 2 34 34 34 34 34 15 15 15 4 4 4 45 45 45 84
 84 84 84 84 84 84 84 84 2 2 37 37 37 37 37 37 15 15 15 58
 58 58 58 58 84 84 84 84 84 84 84 84 84 2 37 37 37 37 37 37
 37 15 58 58 58 58 58 58 58 30 30 30 30 84 84 84 84 84 2 37
 37 37 37 37 37 8 15 58 58 58 58 58 58 58 30 30 30 30 30 30
 84 84 84 75 75 8 8 8 37 8 8 58 58 58 58 58 58 58 58 30
 30 30 30 30 30 30 79 79 79 8 8 8 8 8 8 8 58 58 58 58
 58 58 58 58 30 30 30 30 30 30 30 79 79 79 8 8 8 8 8 8
 8 8 58 58 58 58 58 58 58 30 30 30 30 30 30 79 79 79 79 79
 8 8 8 8 8 8 78 78 58 58 58 58 58 58 30 30 30 30 30 30
 79 79 43 79 79 10 10 8 8 8 8 78 78 58 58 58 58 87 87 87
 92 92 92 92 30 43 43 43 79 10 10 10 10 10 8 8 78 78 87 87
 87 87 87 87 92 92 92 92 92 92 43 43 79 79 10 10 10 10 10 8
 8 42 42 87 87 87 87 87 87 87 92 92 92 92 92 92 43 79 74 10
 10 10 10 10 10 40 42 42 42 87 87 87 87 87 87 92 92 92 92 92
 63 63 74 74 74 74 74 74 74 74 40 42 42 42 42 87 87 87 87 87
 87 87 92 63 63 63 63 74 74 74 74 74 74 74 74 29 42 42 42 42
 87 87 87 87 87 87 87 87 63 63 63 63 74 74 74 74 74 74 74 74
 29 29 29 42 42 87 87 87 87 87 87 87 48 63 63 63 63 74 74 74
 74 74 74 74 74 74 29 29 29 29 87 87 87 87 87 87 48 48 48 48
 48 48 74 74 74 74 74 74 74 74 74 29 29 29 29 24 24 24 24 24
 24 48 48 48 48 48 48 74 74 74 74 74 74 74 74 74 13 13 13 24
 24 24 24 24 24 24 48 48 48 48 48 48 61 61 61 74 74 74 74 74
 74 13 13 24 24 24 24 24 24 24 24 24 48 48 48 48 48 61 61 61
 74 74 74 74 74 13 13 4 24 24 24 24 24 24 24 24 84 84 84 84
 84 85 85 61 61 74 74 74 74 74 94 4 4 4 24 24 24 24 24 24
 84 84 84 84 84 84 84 85 61 61 74 74 74 89 34 34 4 4 4 4
 4 24 24 24 24 84 84 84 84 84 84 84 84 84 80 74 74 89 89 34
 34 4 4 4 4 4 24 24 24 84 84 84 84 84 84 84 84 84 84 80
 34 34 34 34 34 34 4 4 4 4 4 4 45 45 84 84 84 84 84 84
 84 84 84 84 80 34 34 34 34 34 15 15 4 4 4 4 45 45 45 84
 84 84 84 84 84 84 84 84 84 80 37 37 37 34 37 37 15 15 4 4
 4 45 45 45 45 84 84 84 84 84 84 84 84 84 37 37 37 37 37 37
 37 15 15 58 58 58 45 45 45 45 84 84 84 84 84 84 84 84 37 37
 37 37 37 37 37 37 15 58 58 58 58 58 58 58 30 30 30 30 30 84
 84 84 84 37 37 37 37 37 37 37 8 58 58 58 58 58 58 58 58 30
 30 30 30 30 30 30 30 30 75 75 8 8 37 37 37 8 58 58 58 58
 58 58 58 58 30 30 30 30 30 30 30 30 43 86 8 8 8 8 8 8
 8 58 58 58 58 58 58 58 58 30 30 30 30 30 30 30 43 43 86 8
 8 8 8 8 8 8 78 78 58 58 58 58 58 58 30 30 30 30 30 30
 30 43 43 43 43 8 8 8 8 8 78 78 78 78 58 58 58 58 58 30
 30 30 30 30 30 43 43 43 43 43 10 10 10 8 8 78 78 78 78 46
 46 46 46 46 87 92 92 92 92 30 43 43 43 43 10 10 10 10 10 8
 78 78 78 46 46 46 46 46 87 87 92 92 92 92 92 43 43 43 43 27
 27 27 10 10 10 78 78 46 46 46 46 46 87 87 87 92 92 92 92 92
 63 22 22 74 27 27 27 10 10 10 78 42 42 46 46 46 87 87 87 87
 87 92 92 92 63 63 63 74 74 74 74 74 74 74 74 29 42 42 42 42
 87 87 87 87 87 87 92 92 63 63 63 63 74 74 74 74 74 74 74 74
 29 29 29 42 42 87 87 87 87 87 87 87 63 63 63 63 63 63 74 74
 74 74 74 74 74 29 29 29 29 29 87 87 87 87 87 87 63 63 63 63
 63 63 63 74 74 74 74 74 74 74 29 29 29 29 29 29 87 87 87 87
 38 63 63 63 63 63 63 74 74 74 74 74 74 74 74 74 29 29 29 29
 29 24 24 24 24 38 38 63 63 63 63 63 74 74 74 74 74 74 74 74
 74 29 29 29 29 24 24 24 24 24 32 32 48 63 63 85 85 61 61 61
 74 74 74 74 74 74 29 29 29 24 24 24 24 24 32 32 32 48 48 48
 85 85 61 61 61 74 74 74 74 74 74 4 4 4 24 24 24 24 32 32
 32 84 84 84 84 85 85 85 61 61 74 74 74 74 74 4 4 4 4 4
 24 24 24 24 32 32 84 84 84 84 85 85 85 85 85 74 74 89 89 74
 4 4 4 4 4 4 24 24 24 24 84 84 84 84 84 84 85 85 85 80
 80 89 89 89 34 34 4 4 4 4 4 4 45 24 84 84 84 84 84 84
 84 84 84 80 80 80 89 89 89 34 34 4 4 4 4 4 45 45 45 84
 84 84 84 84 84 84 84 84 80 80 80 80 89 34 34 34 4 4 4 4
 4 45 45 45 45 84 84 84 84 84 84 84 84 80 80 80 37 37 37 37
 37 37 4 4 4 45 45 45 45 45 84 84 84 84 84 84 84 84 80 80
 37 37 37 37 37 37 37 4 4 4 45 45 45 45 45 30 84 84 84 84
 84 84 84 80 37 37 37 37 37 37 37 37 58 58 58 58 58 58 58 30
 30 30 30 30 84 84 21 21 80 37 37 37 37 37 37 37 58 58 58 58
 58 58 58 58 30 30 30 30 30 30 30 21 21 21 37 37 37 37 37 37
 52 52 52 58 58 58 58 58 58 30 30 30 30 30 30 21 21 86 86 86
 36 36 8 52 52 52 52 52 58 58 58 58 58 58 30 30 30 30 30 30
 30 86 86 86 86 36 8 8 8 52 52 52 52 58 58 58 58 58 58 30
 30 30 30 30 30 30 86 86 86 86 36 8 8 8 8 78 78 78 46 46
 46 46 46 46 30 30 30 30 30 30 43 43 43 43 43 10 10 10 8 8
 78 78 78 46 46 46 46 46 46 28 28 28 28 28 28 22 22 22 22 27
 27 10 10 10 10 78 78 46 46 46 46 46 46 46 28 28 28 28 28 28
 22 22 22 22 27 27 27 27 10 10 46 46 46 46 46 46 46 46 46 28
 28 28 28 28 28 22 22 22 22 27 27 27 27 10 10 29 29 46 46 46
 46 46 46 87 28 28 28 28 28 63 63 63 22 74 74 74 74 74 74 74
 29 29 29 29 46 46 46 87 87 87 28 28 28 63 63 63 63 63 74 74
 74 74 74 74 74 29 29 29 29 29 29 87 87 87 87 87 63 63 63 63
 63 63 63 74 74 74 74 74 74 74 29 29 29 29 29 29 29 87 87 87
 38 63 63 63 63 63 63 63 74 74 74 74 74 74 74 29 29 29 29 29
 29 90 90 90 38 38 63 63 63 63 63 63 63 74 74 74 74 74 74 74
 29 29 29 29 29 29 90 90 90 38 38 38 63 63 63 63 63 63 74 74
 74 74 74 74 74 74 29 29 29 29 29 90 90 32 32 32 32 63 63 63
 63 85 85 61 74 74 74 74 74 74 74 29 29 29 29 24 90 32 32 32
 32 32 32 63 63 85 85 85 85 61 74 74 74 74 74 47 29 29 4 4
 24 32 32 32 32 32 32 32 9 85 85 85 85 85 85 74 74 74 74 74
 47 4 4 4 4 4 4 32 32 32 32 32 9 9 9 85 85 85 85 85
 74 74 89 89 74 4 4 4 4 4 4 4 32 32 32 32 84 9 9 9
 85 85 85 85 80 80 89 89 89 89 4 4 4 4 4 4 4 69 69 69
 9 9 9 9 9 9 9 80 80 80 80 89 89 89 34 4 4 4 4 4
 4 4 45 45 45 9 9 9 9 9 9 9 80 80 80 80 80 89 89 34
 4 4 4 4 4 4 45 45 45 45 9 9 9 9 9 9 9 80 80 80
 80 80 37 37 37 37 37 4 4 4 4 45 45 45 45 9 9 9 9 9
 9 9 80 80 80 80 37 37 37 37 37 52 4 4 4 45 45 45 45 45
 9 9 9 9 9 9 9 80 80 80 80 37 37 37 37 52 52 52 58 58
 58 58 58 45 30 30 30 30 9 9 9 21 21 80 80 37 37 37 37 37
 52 52 52 58 58 58 58 58 58 30 30 30 30 30 21 21 21 21 21 36
 36 36 37 37 52 52 52 52 52 52 58 58 58 58 30 30 30 30 21 21
 21 21 86 86 36 36 36 36 52 52 52 52 52 52 52 33 33 33 33 30
 30 30 30 30 21 21 86 86 86 36 36 36 36 52 52 52 52 52 52 46
 46 46 46 46 28 28 28 28 28 21 21 86 86 86 36 36 36 36 52 52
 52 52 52 46 46 46 46 46 46 28 28 28 28 28 28 22 22 22 22 22
 36 36 36 52 52 52 52 46 46 46 46 46 46 46 28 28 28 28 28 28
 22 22 22 22 22 27 36 10 10 52 52 46 46 46 46 46 46 46 46 28
 28 28 28 28 28 22 22 22 22 22 27 27 27 10 10 93 93 46 46 46
 46 46 46 46 28 28 28 28 28 28 22 22 22 22 22 27 27 27 27 27
 93 93 46 46 46 46 46 46 46 28 28 28 28 28 28 22 22 22 22 74
 74 74 74 74 74 29 29 29 29 46 46 46 46 46 28 28 28 28 63 63
 63 63 63 74 74 74 74 74 74 74 29 29 29 29 29 46 46 46 46 38
 38 38 63 63 63 63 63 63 74 74 74 74 74 74 74 29 29 29 29 29
 29 90 90 90 38 38 38 63 63 63 63 63 63 63 74 74 74 74 74 74
 29 29 29 29 29 90 90 90 90 38 38 38 63 63 63 63 63 63 74 74
 74 74 74 74 74 29 29 29 29 29 90 90 90 90 38 38 38 38 63 63
 63 63 63 74 74 74 74 74 74 74 74 29 29 29 29 90 90 90 90 32
 32 38 67 67 63 63 85 85 85 74 74 74 74 74 74 74 29 29 29 29
 90 90 32 32 32 32 32 67 67 63 85 85 85 85 85 74 74 74 74 74
 47 47 47 4 4 4 32 32 32 32 32 32 32 9 9 85 85 85 85 85
 74 74 74 74 74 47 47 47 4 4 4 32 32 32 32 32 32 9 9 9
 85 85 85 85 85 74 74 89 89 47 47 47 4 4 4 4 69 69 32 32
 32 9 9 9 9 9 85 85 85 80 80 89 89 89 47 47 47 4 4 4
 4 69 69 69 69 9 9 9 9 9 9 9 80 80 80 80 80 89 47 47
 47 4 4 4 4 4 69 69 69 69 9 9 9 9 9 9 9 80 80 80
 80 80 89 47 47 47 47 4 4 4 4 69 69 69 69 9 9 9 9 9
 9 9 80 80 80 80 80 37 47 47 47 47 4 4 4 4 45 45 45 9
 9 9 9 9 9 9 9 80 80 80 80 80 37 37 47 52 52 52 4 4
 45 45 45 45 9 9 9 9 9 9 9 9 9 80 80 80 37 37 37 37
 52 52 52 52 58 58 58 58 45 9 9 9 9 9 9 9 21 21 21 36
 36 36 37 52 52 52 52 52 52 52 58 58 58 58 30 30 30 9 21 21
 21 21 21 21 36 36 36 36 52 52 52 52 52 52 52 33 33 33 33 71
 71 71 71 21 21 21 21 21 21 36 36 36 36 52 52 52 52 52 52 52
 33 33 33 33 71 71 71 71 21 21 21 21 86 36 36 36 36 36 52 52
 52 52 52 52 52 33 33 33 33 71 71 28 28 28 21 21 21 22 36 36
 36 36 36 52 52 52 52 52 46 46 46 46 46 28 28 28 28 28 28 28
 22 22 22 22 22 36 36 36 52 52 52 52 46 46 46 46 46 46 28 28
 28 28 28 28 28 22 22 22 22 22 36 36 36 52 52 52 93 46 46 46
 46 46 46 28 28 28 28 28 28 28 22 22 22 22 22 22 27 27 10 52
 93 93 93 46 46 46 46 46 46 28 28 28 28 28 28 22 22 22 22 22
 22 27 27 27 93 93 93 93 46 46 46 46 46 46 28 28 28 28 28 28
 22 22 22 22 22 22 74 74 74 93 93 93 29 29 46 46 46 46 46 28
 28 28 28 28 63 63 63 22 22 74 74 74 74 74 74 29 29 29 29 29
 70 70 46 38 38 38 38 38 63 63 63 63 63 74 74 74 74 74 74 74
 29 29 29 29 29 29 90 90 38 38 38 38 38 63 63 63 63 63 63 74
 74 74 74 74 29 29 29 29 29 29 90 90 90 90 38 38 38 38 63 63
 63 63 63 63 74 74 74 74 74 29 29 29 29 29 29 90 90 90 90 38
 38 38 38 67 63 63 63 63 63 74 74 74 74 74 74 29 29 29 29 90
 90 90 90 90 38 38 38 67 67 67 63 85 85 85 85 74 74 74 74 74
 47 29 29 29 90 90 90 90 32 32 32 38 67 67 67 85 85 85 85 85
 74 74 74 74 74 47 47 47 47 90 90 90 32 32 32 32 32 67 9 9
 85 85 85 85 85 74 74 47 47 47 47 47 47 47 4 69 69 32 32 32
 32 9 9 9 9 85 85 85 85 85 85 47 47 47 47 47 47 47 47 4
 69 69 69 69 32 9 9 9 9 9 9 85 85 85 80 80 80 47 47 47
 47 47 47 47 47 69 69 69 69 69 9 9 9 9 9 9 9 80 80 80
 80 80 47 47 47 47 47 47 47 47 69 69 69 69 69 9 9 9 9 9
 9 9 80 80 80 80 80 47 47 47 47 47 47 47 47 69 69 69 69 69
 9 9 9 9 9 9 9 80 80 80 80 80 47 47 47 47 47 47 47 47
 69 69 69 69 9 9 9 9 9 9 9 9 9 80 80 80 80 37 47 47
 47 47 47 52 52 69 69 69 69 9 9 9 9 9 9 9 9 9 80 80
 80 36 36 37 47 52 52 52 52 52 52 58 58 45 9 9 9 9 9 9
 21 21 21 21 36 36 36 36 52 52 52 52 52 52 52 52 58 58 71 71
 71 9 9 21 21 21 21 21 21 36 36 36 36 52 52 52 52 52 52 52
 33 33 33 71 71 71 71 71 21 21 21 21 21 21 36 36 36 36 52 52
 52 52 52 52 52 33 33 33 33 71 71 71 71 21 21 21 21 21 36 36
 36 36 36 52 52 52 52 52 52 52 33 33 33 33 71 71 71 28 28 21
 21 21 22 36 36 36 36 36 52 52 52 52 52 52 46 33 33 33 28 28
 28 28 28 28 28 22 22 22 22 36 36 36 36 36 52 52 52 52 46 46
 46 46 46 28 28 28 28 28 28 28 22 22 22 22 22 36 36 36 36 52
 93 93 46 46 46 46 46 46 28 28 28 28 28 28 28 22 22 22 22 22
 22 36 36 36 52 93 93 93 46 46 46 46 46 28 28 28 28 28 28 28
 22 22 22 22 22 22 22 36 93 93 93 93 93 70 46 46 46 46 28 28
 28 28 28 28 28 22 22 22 22 22 22 22 74 93 93 93 93 93 70 70
 70 70 46 38 38 28 28 28 38 38 22 22 22 22 22 74 74 74 74 93
 70 29 70 70 70 70 70 70 38 38 38 38 38 38 38 63 63 63 22 74
 74 74 74 74 74 29 29 29 29 70 70 90 90 38 38 38 38 38 38 63
 63 63 63 63 74 74 74 74 74 29 29 29 29 29 70 90 90 90 90 38
 38 38 38 38 63 63 63 63 19 19 74 74 74 74 29 29 29 29 29 70
 90 90 90 90 38 38 38 38 67 67 63 63 19 19 19 74 74 74 74 74
 29 29 29 29 90 90 90 90 90 38 38 38 67 67 67 63 19 19 19 19
 19 74 74 74 74 47 47 47 47 90 90 90 90 90 38 38 38 67 67 67
 85 85 85 19 19 19 74 74 47 47 47 47 47 47 47 90 90 90 32 32
 38 38 38 9 9 85 85 85 85 19 19 47 47 47 47 47 47 47 47 47
 69 69 50 50 50 50 9 9 9 9 9 85 85 85 85 85 47 47 47 47
 47 47 47 47 47 69 69 69 69 50 50 9 9 9 9 9 9 85 85 85
 80 47 47 47 47 47 47 47 47 47 69 69 69 69 50 9 9 9 9 9
 9 9 9 80 80 80 47 47 47 47 47 47 47 47 47 69 69 69 69 69
 9 9 9 9 9 9 9 9 80 80 80 47 47 47 47 47 47 47 47 47
 69 69 69 69 69 9 9 9 9 9 9 9 9 80 80 80 47 47 47 47
 47 47 47 47 47 69 69 69 69 9 9 9 9 9 9 9 9 9 80 80
 80 80 47 47 47 47 47 47 47 47 69 69 69 69 9 9 9 9 9 9