# vtk DataFile Version 2.0
Data set from ImportExport Version 6.5.141.ec284b7a5
ASCII

DATASET RECTILINEAR_GRID
DIMENSIONS 26 26 26
X_COORDINATES 26 float
-3.000000 3.000000 9.000000 15.000000 21.000000 27.000000 33.000000 39.000000 45.000000 51.000000 57.000000 63.000000 69.000000 75.000000 81.000000 87.000000 93.000000 99.000000 105.000000 111.000000 117.000000 
123.000000 129.000000 135.000000 141.000000 147.000000 
Y_COORDINATES 26 float
-3.000000 3.000000 9.000000 15.000000 21.000000 27.000000 33.000000 39.000000 45.000000 51.000000 57.000000 63.000000 69.000000 75.000000 81.000000 87.000000 93.000000 99.000000 105.000000 111.000000 117.000000 
123.000000 129.000000 135.000000 141.000000 147.000000 
Z_COORDINATES 26 float
-3.000000 3.000000 9.000000 15.000000 21.000000 27.000000 33.000000 39.000000 45.000000 51.000000 57.000000 63.000000 69.000000 75.000000 81.000000 87.000000 93.000000 99.000000 105.000000 111.000000 117.000000 
123.000000 129.000000 135.000000 141.000000 147.000000 
CELL_DATA 15625
SCALARS FeatureIds int 1
LOOKUP_TABLE default
 84 84 50 50 50 50 50 50 50 50 50 80 80 80 80 80 80 95 95 43
 43 43 43 43 84 84 84 50 50 50 50 50 50 50 50 50 82 82 80 80
 80 80 92 95 43 43 43 43 84 84 84 84 84 50 50 50 50 50 50 50
 50 82 82 82 80 80 92 92 92 84 43 43 84 84 84 84 84 84 50 50
 50 50 50 50 50 82 82 82 82 82 82 92 92 92 84 84 84 84 84 84
 84 84 84 84 50 50 50 50 50 50 82 82 82 82 82 82 92 92 92 84
 84 84 84 84 84 84 84 84 84 50 50 50 50 50 50 82 82 82 36 36
 36 68 92 84 84 84 84 84 84 84 84 84 84 84 84 50 50 51 51 51
 36 36 36 36 36 36 68 68 68 84 84 84 84 84 84 84 84 84 84 85
 85 85 85 51 51 97 36 36 36 36 68 68 68 68 68 84 84 84 84 84
 84 84 84 84 85 85 85 85 85 97 97 36 36 36 36 68 68 68 68 68
 68 84 84 84 84 84 84 84 85 85 85 85 85 85 85 97 97 36 36 68
 68 68 68 68 68 68 84 84 84 84 84 84 85 85 85 85 85 85 85 85
 85 97 97 10 10 10 68 68 68 68 68 84 84 84 84 96 96 85 85 85
 85 85 85 85 85 85 85 85 10 10 10 10 68 68 68 68 84 84 84 84
 96 96 96 85 85 85 85 85 85 85 85 85 85 10 10 10 10 68 68 68
 68 26 26 26 26 96 96 96 85 85 85 85 85 85 85 85 85 85 10 10
 10 10 68 68 68 68 26 26 26 26 96 96 96 85 85 85 85 85 85 85
 85 85 24 24 10 10 10 68 68 19 32 32 26 26 26 96 96 96 85 85
 85 85 85 85 85 85 24 24 24 24 19 19 19 19 19 19 32 32 26 26
 34 34 34 34 85 85 85 85 85 85 24 24 24 24 24 19 19 19 19 19
 19 49 49 49 34 34 34 34 34 34 85 85 85 85 24 24 24 24 24 24
 19 19 19 19 60 60 49 49 49 49 78 78 15 15 73 73 15 15 15 24
 24 24 24 24 24 19 19 19 60 60 60 60 60 60 60 78 78 15 15 15
 73 15 15 15 24 24 24 24 16 16 16 19 19 60 60 60 60 60 60 78
 78 78 15 15 15 15 15 15 15 41 41 41 41 16 16 16 16 19 60 60
 60 60 60 60 78 78 15 15 15 15 15 15 15 15 41 41 41 41 16 16
 16 16 19 60 60 60 60 12 12 12 78 78 15 15 15 15 50 50 50 50
 41 41 41 16 16 16 16 19 60 60 60 12 12 12 12 78 78 15 15 50
 50 50 50 50 50 50 41 41 16 16 16 16 19 60 60 60 12 12 12 12
 78 78 50 50 50 50 50 50 50 50 50 50 80 80 80 16 16 95 95 95
 12 12 12 12 12 84 84 45 45 50 50 50 50 50 50 50 80 80 80 80
 80 80 95 95 95 43 43 43 43 84 84 84 50 50 50 50 50 50 50 50
 50 80 80 80 80 80 80 95 95 95 43 43 43 84 84 84 84 84 50 50
 50 50 50 50 50 50 80 80 80 80 80 80 92 95 95 43 43 84 84 84
 84 84 84 50 50 50 50 50 50 50 50 82 80 80 80 80 80 92 95 84
 84 84 84 84 84 84 84 84 84 50 50 50 50 50 50 82 82 82 36 36
 36 36 92 84 84 84 84 84 84 84 84 84 84 84 84 50 50 50 50 50
 36 36 36 36 36 36 36 84 84 84 84 84 84 84 84 84 84 84 84 84
 50 97 97 97 97 36 36 36 36 36 36 36 68 84 84 84 84 84 84 84
 84 84 84 84 84 85 97 97 97 97 97 36 36 36 36 36 36 68 68 84
 84 84 84 84 84 84 84 84 84 85 85 85 97 97 97 97 36 36 36 36
 36 68 68 68 68 84 84 84 84 84 84 84 84 85 85 85 85 85 97 97
 97 97 36 36 36 68 68 68 68 68 68 84 84 84 84 84 84 84 85 85
 85 85 85 85 97 97 97 97 10 10 10 10 68 68 68 68 84 84 84 84
 96 96 96 85 85 85 85 85 85 85 97 97 97 10 10 10 10 68 68 68
 68 84 84 84 84 96 96 96 85 85 85 85 85 85 85 85 97 97 10 10
 10 10 68 68 68 68 32 26 26 26 96 96 96 34 85 85 85 85 85 85
 85 97 97 10 10 10 10 10 68 68 32 32 26 26 26 96 96 96 34 34
 85 85 85 85 85 85 24 24 24 10 10 10 10 68 32 32 32 32 26 34
 34 34 34 34 34 85 85 85 85 85 24 24 24 24 24 24 19 19 19 19
 32 32 32 32 34 34 34 34 34 34 34 85 85 85 24 24 24 24 24 24
 24 19 19 19 19 49 49 49 49 34 34 34 34 34 34 34 73 85 24 24
 24 24 24 24 24 24 19 19 60 60 60 49 49 49 49 78 78 34 34 73
 73 73 73 24 24 24 24 24 24 24 19 19 60 60 60 60 60 49 49 49
 78 78 78 15 73 73 73 15 24 24 24 24 24 24 24 16 19 60 60 60
 60 60 60 60 78 78 78 78 78 73 73 73 15 24 24 41 41 41 24 16
 16 16 60 60 60 60 60 60 78 78 78 78 78 45 45 45 45 45 45 41
 41 41 41 16 16 16 16 60 60 60 60 60 60 12 78 78 78 78 45 45
 45 45 45 50 41 41 41 41 16 16 16 16 60 60 60 60 60 12 12 12
 78 78 45 45 45 45 50 50 50 50 27 27 27 80 80 16 16 95 95 95
 43 43 12 12 12 78 45 45 45 45 50 50 50 50 50 50 80 80 80 80
 80 80 95 95 95 43 43 12 12 12 84 45 45 45 45 45 50 50 50 50
 27 80 80 80 80 80 80 95 95 95 95 43 43 43 84 84 84 45 45 45
 50 50 50 50 50 80 80 80 80 80 80 80 95 95 95 43 43 43 84 84
 84 84 84 50 50 50 50 50 50 50 80 80 80 80 80 80 80 95 95 95
 95 43 84 84 84 84 84 84 84 50 50 50 50 50 50 80 80 80 80 80
 80 80 95 95 95 84 84 84 84 84 84 84 84 84 50 50 50 50 50 50
 36 36 36 36 36 36 36 95 95 84 84 84 84 84 84 84 84 84 84 84
 50 50 50 97 97 36 36 36 36 36 36 36 36 84 84 84 84 84 84 84
 84 84 84 84 84 97 97 97 97 97 97 36 36 36 36 36 36 36 84 84
 84 84 84 84 84 84 84 84 84 84 97 97 97 97 97 97 36 36 36 36
 36 36 68 68 84 84 84 84 84 84 84 84 84 84 85 97 97 97 97 97
 97 97 36 36 36 36 36 68 68 84 84 84 84 84 84 84 84 84 84 85
 85 97 97 97 97 97 97 36 36 36 36 36 68 68 68 84 84 84 84 84
 84 84 84 85 85 85 85 97 97 97 97 97 97 36 36 10 10 68 68 68
 68 84 84 84 84 96 96 34 34 85 85 85 85 97 97 97 97 97 10 10
 10 10 68 68 68 101 84 84 75 84 96 96 34 34 34 85 85 85 85 97
 97 97 97 10 10 10 10 10 68 101 32 32 75 75 75 96 96 96 34 34
 85 85 85 85 85 85 97 97 10 10 10 10 10 68 32 32 32 75 75 75
 96 96 34 34 34 34 85 85 85 85 24 24 24 24 24 37 10 10 32 32
 32 32 32 75 34 34 34 34 34 34 34 34 85 85 24 24 24 24 24 24
 24 24 60 32 32 32 32 32 32 34 34 34 34 34 34 34 34 85 24 24
 24 24 24 24 24 24 24 60 60 32 32 32 32 32 34 34 34 34 34 34
 34 34 34 24 24 24 24 24 24 24 24 24 60 60 60 60 49 49 49 34
 34 34 34 34 34 73 73 24 24 24 24 24 24 24 24 24 19 60 60 60
 60 60 60 78 78 78 78 78 78 73 73 73 73 24 24 24 24 24 24 24
 24 19 60 60 60 60 60 60 78 78 78 78 78 78 45 73 45 45 24 24
 24 24 24 24 24 24 60 60 60 60 60 60 60 78 78 78 78 78 78 45
 45 45 45 45 27 41 41 41 24 24 16 16 60 60 60 60 60 60 78 78
 78 78 78 45 45 45 45 45 45 27 27 27 27 27 27 16 16 60 60 60
 60 60 60 78 78 78 78 45 45 45 45 45 45 45 27 27 27 27 80 80
 80 16 95 95 95 95 95 95 12 78 78 45 45 45 45 45 45 50 50 27
 27 27 80 80 80 80 80 95 95 95 95 95 95 12 12 45 45 45 45 45
 45 45 45 45 27 27 80 80 80 80 80 80 95 95 95 95 95 95 84 84
 84 45 45 45 45 45 45 50 50 50 80 80 80 80 80 80 80 95 95 95
 95 95 84 84 84 84 84 45 45 45 45 50 50 50 50 80 80 80 80 80
 80 80 95 95 95 95 95 84 84 84 84 84 84 45 45 50 50 50 50 50
 80 80 80 80 80 80 80 95 95 95 95 84 84 84 84 84 84 84 84 45
 50 50 50 50 97 36 36 36 36 36 36 36 95 95 95 84 84 84 84 84
 84 84 84 84 84 97 97 97 97 97 36 36 36 36 36 36 36 95 95 84
 84 84 84 84 84 84 84 84 84 84 97 97 97 97 97 97 36 36 36 36
 36 36 36 84 84 84 84 84 84 84 84 84 84 84 84 97 97 97 97 97
 97 36 36 36 36 36 36 36 84 84 84 84 84 84 84 84 84 84 84 97
 97 97 97 97 97 97 97 36 36 36 36 36 36 84 84 84 84 84 84 84
 84 84 84 34 85 85 97 97 97 97 97 97 36 36 36 36 36 68 68 84
 84 84 84 84 84 84 84 34 34 34 85 97 97 97 97 97 97 97 36 36
 36 36 68 68 101 101 84 84 84 84 34 34 34 34 34 34 85 97 97 97
 97 97 97 36 10 10 10 10 101 101 101 101 101 75 75 34 34 34 34 34
 34 85 85 97 97 97 97 97 37 37 10 10 10 101 101 101 32 75 75 75
 34 34 34 34 34 34 34 85 85 97 97 97 97 37 37 37 37 37 101 32
 32 32 75 75 75 34 34 34 34 34 34 34 34 85 24 24 24 24 37 37
 37 37 37 32 32 32 32 32 75 34 34 34 34 34 34 34 34 34 24 24
 24 24 24 24 37 37 37 37 32 32 32 32 32 32 34 34 34 34 34 34
 34 34 34 24 24 24 24 24 24 24 24 24 67 67 32 32 32 32 32 34
 34 34 34 34 34 34 34 34 24 24 24 24 24 24 24 24 67 67 67 67
 60 32 32 32 34 34 34 34 34 34 34 34 34 24 24 24 24 24 24 24
 24 67 67 67 67 60 60 60 60 34 78 78 78 34 34 45 45 45 24 24
 24 24 24 24 24 24 67 67 60 60 60 60 60 78 78 78 78 78 78 45
 45 45 45 45 24 24 24 24 24 24 24 24 60 60 60 60 60 60 78 78
 78 78 78 45 45 45 45 45 45 27 27 27 27 27 24 24 24 60 60 60
 60 60 78 78 78 78 78 78 45 45 45 45 45 45 27 27 27 27 27 27
 27 24 95 95 95 95 95 78 78 78 78 78 45 45 45 45 45 45 45 27
 27 27 27 27 80 80 95 95 95 95 95 95 95 78 78 78 45 45 45 45
 45 45 45 45 27 27 27 27 80 80 80 95 95 95 95 95 95 95 95 78
 6 6 45 45 45 45 45 45 45 27 27 27 80 80 80 80 95 95 95 95
 95 95 95 95 84 6 6 6 45 45 45 45 45 45 27 80 80 80 80 80
 80 95 95 95 95 95 95 95 84 84 84 6 6 45 45 45 45 45 45 80
 80 80 80 80 80 80 95 95 95 95 95 95 84 84 84 84 84 84 45 45
 45 50 50 50 80 80 80 80 80 80 80 53 95 95 95 95 53 84 84 84
 84 84 84 84 66 66 66 50 97 97 36 36 36 36 36 36 53 53 53 53
 53 84 84 84 84 84 84 84 84 66 66 66 97 97 97 36 36 36 36 36
 36 36 53 53 53 84 84 84 84 84 84 84 84 84 66 66 97 97 97 97
 97 36 36 36 36 36 36 53 53 53 84 84 84 84 84 84 84 84 84 97
 97 97 97 97 97 97 36 36 36 36 36 36 36 53 84 84 84 84 84 84
 84 84 84 84 97 97 97 97 97 97 97 36 36 36 36 36 36 36 53 84
 84 84 84 84 84 84 84 84 34 97 97 97 97 97 97 97 97 36 36 36
 36 36 36 101 101 101 84 84 84 84 84 34 34 34 34 97 97 97 97 97
 97 97 97 36 36 36 36 36 101 101 101 101 101 84 84 34 34 34 34 34
 34 97 97 97 97 97 97 97 36 36 36 10 101 101 101 101 101 101 101 101
 34 34 34 34 34 34 34 94 97 97 97 97 97 37 37 37 37 101 101 101
 101 101 101 75 34 34 34 34 34 34 34 34 94 94 97 97 97 37 37 37
 37 37 37 101 101 101 101 101 75 34 34 34 34 34 34 34 34 94 94 24
 24 24 24 37 37 37 37 37 101 32 32 32 32 75 34 34 34 34 34 34
 34 34 34 24 24 24 24 24 37 37 37 37 37 67 32 32 32 32 32 34
 34 34 34 34 34 34 34 34 24 24 24 24 24 24 24 37 37 67 67 67
 32 32 32 32 34 34 34 34 34 34 34 34 34 24 24 24 24 24 24 24
 24 67 67 67 67 67 67 32 32 34 34 34 34 34 34 34 34 34 24 24
 24 24 24 24 24 24 67 67 67 67 67 67 32 34 34 78 78 34 34 34
 45 45 45 24 24 24 24 24 24 24 24 67 67 67 67 67 67 78 78 78
 78 78 78 45 45 45 45 45 45 24 24 24 24 24 24 24 67 67 67 67
 60 60 78 78 78 78 78 78 45 45 45 45 45 45 27 27 27 27 27 27
 27 27 67 67 13 60 60 78 78 78 78 78 45 45 45 45 45 45 45 27
 27 27 27 27 27 27 27 95 13 13 13 13 78 78 78 78 45 45 45 45
 45 45 45 45 27 27 27 27 27 27 27 95 95 13 13 13 13 13 48 48
 45 45 45 45 45 45 45 45 45 27 27 27 27 80 80 80 95 95 95 95
 95 95 95 95 48 6 6 45 45 45 45 45 45 45 27 27 27 80 80 80
 80 95 95 95 95 95 95 95 100 100 6 6 6 45 45 45 45 45 45 27
 27 80 80 80 80 80 95 95 95 95 95 95 53 53 100 6 6 6 45 45
 45 45 45 45 27 80 80 80 80 80 80 53 95 95 95 95 53 53 84 84
 84 84 6 45 45 66 66 45 45 27 80 80 80 80 80 80 53 53 53 53
 53 53 53 84 84 84 84 84 66 66 66 66 66 97 97 36 36 36 36 36
 53 53 53 53 53 53 53 53 84 84 84 84 84 84 66 66 66 66 97 97
 36 36 36 36 36 36 53 53 53 53 53 53 84 84 84 84 84 84 84 66
 66 66 97 97 97 97 36 36 36 36 36 36 53 53 53 53 84 84 84 84
 84 84 84 54 54 66 97 97 97 97 97 36 36 36 36 36 36 53 53 53
 84 84 84 84 84 84 84 84 54 54 97 97 97 97 97 97 36 36 36 36
 36 36 36 101 101 101 84 84 84 84 84 84 34 34 97 97 97 97 97 97
 97 97 36 36 36 36 36 36 101 101 101 101 101 101 84 34 34 34 34 34
 97 97 97 97 97 97 97 36 36 36 36 36 101 101 101 101 101 101 101 101
 34 34 34 34 34 34 97 97 97 97 97 97 97 36 36 37 37 101 101 101
 101 101 101 101 101 34 34 34 34 34 34 94 94 94 97 97 97 37 37 37
 37 37 101 101 101 101 101 101 101 101 34 34 34 34 34 34 94 94 94 39
 39 39 37 37 37 37 37 101 101 101 101 101 101 101 34 34 34 34 34 34
 34 34 94 94 24 24 24 37 37 37 37 37 37 101 101 101 101 101 101 34
 34 34 34 34 34 34 34 34 24 24 24 24 24 37 37 37 37 37 67 101
 32 32 32 34 34 34 34 34 34 34 34 34 34 24 24 24 24 24 24 37
 37 37 67 67 67 32 32 32 34 34 34 34 34 34 34 34 34 34 24 24
 24 24 24 24 24 24 67 67 67 67 67 67 32 34 34 34 34 34 34 34
 34 34 34 24 24 24 24 24 24 24 24 67 67 67 67 67 67 67 34 34
 48 34 34 34 34 45 45 45 24 24 24 24 24 24 24 24 67 67 67 67
 67 67 48 48 48 48 48 48 45 45 45 45 45 45 24 24 24 24 24 24
 24 67 67 67 67 67 67 48 48 48 48 48 45 45 45 45 45 45 45 27
 27 27 27 27 27 27 46 46 46 13 60 48 48 48 48 48 48 45 45 45
 45 45 45 45 27 27 27 27 27 27 27 46 46 13 13 13 13 48 48 48
 48 45 45 45 45 45 45 45 45 27 27 27 27 27 27 27 46 95 13 13
 13 13 48 48 48 48 45 45 45 45 45 45 45 45 27 27 27 27 27 27
 80 95 95 95 95 95 95 95 48 48 6 6 45 45 45 45 45 45 45 27
 27 27 27 27 80 80 95 95 95 95 95 53 53 100 100 6 6 6 45 45
 45 45 45 45 27 27 27 80 80 80 80 53 53 53 53 53 53 53 100 100
 6 6 6 45 45 45 45 45 45 27 27 80 80 80 80 53 53 53 53 53
 53 53 53 53 100 6 6 6 45 66 66 66 66 66 91 91 80 80 80 80
 53 53 53 53 53 53 53 53 53 84 84 84 66 66 66 66 66 66 66 91
 91 91 36 62 62 53 53 53 53 53 53 53 53 53 84 84 84 84 66 66
 66 66 66 66 91 91 36 36 62 62 53 53 53 53 53 53 53 53 84 84
 84 84 84 66 66 66 66 66 97 97 97 36 36 36 36 36 53 53 53 53
 53 53 53 84 84 84 84 54 54 54 54 54 97 97 97 97 36 36 36 36
 36 36 53 53 53 53 53 84 84 84 84 84 54 54 54 54 54 97 97 97
 97 36 36 36 36 36 36 101 101 101 101 101 101 101 84 84 34 34 34 54
 54 54 97 97 97 97 97 36 36 36 36 36 101 101 101 101 101 101 101 101
 34 34 34 34 34 34 34 97 97 97 97 97 36 36 36 36 101 101 101 101
 101 101 101 101 101 34 34 34 34 34 34 34 97 97 97 39 39 39 39 37
 37 101 101 101 101 101 101 101 101 101 34 34 34 34 34 34 34 94 94 39
 39 39 39 39 37 37 101 101 101 101 101 101 101 101 101 34 34 34 34 34
 34 34 94 94 39 39 39 39 37 37 37 37 101 101 101 101 101 101 101 34
 34 34 34 34 34 34 34 94 94 39 39 39 39 37 37 37 37 101 101 101
 101 101 101 101 34 34 34 34 34 34 34 34 34 33 33 24 24 24 37 37
 37 37 37 101 101 101 101 101 101 34 34 34 34 34 34 34 34 33 33 33
 33 24 24 24 37 37 37 67 65 65 65 101 101 34 34 34 34 34 34 34
 34 34 33 33 33 33 24 24 24 24 24 67 67 65 65 65 65 65 34 34
 34 34 34 34 34 34 34 33 33 33 33 24 24 24 24 24 67 67 67 67
 67 67 48 48 48 48 48 48 34 34 45 45 45 33 33 24 24 24 24 24
 24 67 67 67 67 67 48 48 48 48 48 48 48 48 45 45 45 45 45 27
 24 24 24 24 47 47 46 46 46 46 46 48 48 48 48 48 48 48 45 45
 45 45 45 45 27 27 27 27 27 47 46 46 46 46 46 46 48 48 48 48
 48 48 48 45 45 45 45 45 45 27 27 27 27 27 27 46 46 46 46 13
 13 13 48 48 48 48 48 45 45 45 45 45 45 45 27 27 27 27 27 27
 27 46 46 13 13 13 13 48 48 48 48 48 45 45 45 45 45 45 45 27
 27 27 27 27 27 27 46 95 95 95 95 95 100 48 48 48 48 48 45 45
 45 45 45 45 27 27 27 27 27 20 20 20 53 53 53 53 53 100 100 100
 100 100 6 45 45 45 45 45 45 27 27 27 27 20 20 20 20 53 53 53
 53 53 100 100 100 100 100 6 45 45 45 45 45 45 91 91 91 91 20 20
 20 53 53 53 53 53 53 53 100 100 100 100 66 66 66 66 66 66 91 91
 91 91 91 62 62 53 53 53 53 53 53 53 53 53 100 100 100 66 66 66
 66 66 66 91 91 91 91 62 62 62 53 53 53 53 53 53 53 53 53 100
 84 84 66 66 66 66 66 66 91 91 91 91 62 62 62 62 53 53 53 53
 53 53 53 53 53 84 84 42 42 42 66 66 66 91 91 91 91 62 62 62
 62 53 53 53 53 53 53 53 53 53 84 84 54 54 54 54 54 66 91 91
 91 91 62 62 62 62 53 53 53 53 53 53 53 53 84 84 84 54 54 54
 54 54 97 91 91 91 91 36 36 36 36 36 101 101 101 101 101 101 101 101
 34 34 2 2 54 54 54 97 97 97 97 97 36 36 36 36 101 101 101 101
 101 101 101 101 101 34 34 2 2 2 2 2 39 39 39 39 39 39 39 36
 101 101 101 101 101 101 101 101 101 101 34 34 2 2 2 2 34 39 39 39
 39 39 39 39 39 101 101 101 101 101 101 101 101 101 101 34 34 34 34 34
 34 34 94 39 39 39 39 39 39 37 101 101 101 101 101 101 101 101 101 101
 55 34 34 34 34 34 34 94 39 39 39 39 39 39 37 37 101 101 101 101
 101 101 101 101 101 55 34 34 34 34 34 34 34 39 39 39 39 39 39 37
 37 37 101 101 101 101 101 101 101 55 55 55 34 34 34 34 34 34 33 33
 39 39 39 39 37 37 37 101 101 101 101 101 101 101 55 55 34 34 34 34
 34 34 33 33 33 33 39 39 39 37 37 37 65 65 65 65 65 101 55 55
 34 34 34 34 34 34 34 33 33 33 33 33 24 24 24 24 67 65 65 65
 65 65 65 48 34 48 48 34 34 34 34 34 33 33 33 33 33 24 24 24
 24 67 65 65 65 65 65 48 48 48 48 48 48 48 48 45 45 45 33 33
 33 24 24 47 47 47 46 46 46 46 65 48 48 48 48 48 48 48 48 48
 45 45 45 45 27 24 24 24 47 47 47 46 46 46 46 46 48 48 48 48
 48 48 48 48 45 45 45 45 45 27 27 27 27 27 47 47 46 46 46 46
 46 48 48 48 48 48 48 48 48 45 45 45 45 45 27 27 27 27 27 27
 46 46 46 46 46 46 48 48 48 48 48 48 48 45 45 45 45 45 45 27
 27 27 27 27 27 27 46 46 46 46 13 48 48 48 48 48 48 48 45 45
 45 45 45 45 27 27 27 27 27 27 20 20 95 53 53 53 100 100 100 48
 100 48 48 48 45 45 45 45 45 27 27 27 27 20 20 20 20 20 53 53
 53 100 100 100 100 100 100 48 45 45 45 45 45 45 91 27 27 27 20 20
 20 20 53 53 53 53 53 100 100 100 100 100 100 45 45 45 45 42 91 91
 91 91 91 20 20 20 20 53 53 53 53 53 100 100 100 100 100 100 42 42
 42 42 42 91 91 91 91 91 62 62 20 53 53 53 53 53 53 53 100 100
 100 100 42 42 42 42 42 42 91 91 91 91 62 62 62 62 53 53 53 53
 53 53 53 53 100 100 100 42 42 42 42 42 42 91 91 91 91 62 62 62
 62 53 53 53 53 53 53 53 23 23 84 84 42 42 42 42 42 42 91 91
 91 91 62 62 62 62 53 53 53 53 53 23 23 23 23 84 54 54 54 54
 54 42 91 91 91 91 91 62 62 62 62 53 53 53 53 53 23 23 101 101
 84 40 40 40 40 40 40 91 91 91 91 91 91 91 62 62 101 101 101 101
 101 101 101 101 101 2 2 2 2 40 40 40 40 91 91 91 91 91 91 36
 101 101 101 101 101 101 101 101 101 101 2 2 2 2 2 40 40 39 39 39
 39 39 39 39 39 101 101 101 101 101 101 101 101 101 101 55 2 2 2 2
 2 40 39 39 39 39 39 39 39 39 101 101 101 101 101 101 101 101 101 101
 55 55 34 2 2 34 40 39 39 39 39 39 39 39 39 39 101 101 101 101
 101 101 101 101 101 55 55 55 34 34 34 34 39 39 39 39 39 39 39 39
 37 101 101 101 101 101 101 101 101 55 55 55 55 34 34 34 34 34 39 39
 39 39 39 39 39 37 101 101 101 101 101 101 101 101 55 55 55 55 34 34
 34 34 34 33 33 39 39 39 39 39 37 37 101 101 101 101 101 101 55 55
 55 55 55 34 34 34 34 33 33 33 33 39 39 39 39 37 37 65 65 65
 65 101 101 55 55 55 55 55 34 34 34 61 33 33 33 33 33 39 39 24
 24 67 65 65 65 65 65 48 48 34 48 48 48 48 48 48 61 61 33 33
 33 33 24 24 24 47 46 65 65 65 65 65 48 48 48 48 48 48 48 48
 48 45 45 33 33 33 33 24 47 47 47 46 46 46 46 65 65 48 48 48
 48 48 48 48 48 48 45 45 45 33 33 24 24 47 47 47 46 46 46 46
 46 48 48 48 48 48 48 48 48 48 45 45 45 45 27 27 27 27 47 47
 47 46 46 46 46 46 48 48 48 48 48 48 48 48 48 45 45 45 45 27
 27 27 27 27 27 46 46 46 46 46 46 48 48 48 48 48 48 48 48 45
 45 45 45 45 27 27 27 27 27 27 46 46 46 46 46 53 48 48 48 48
 48 48 48 48 45 45 45 45 45 27 27 27 27 27 20 20 20 20 53 53
 53 100 100 100 48 100 48 48 48 48 45 45 45 45 91 27 69 27 20 20
 20 20 20 53 53 90 100 100 100 100 100 100 48 48 45 45 45 45 91 91
 91 69 91 20 20 20 20 20 53 53 53 100 100 100 100 100 100 100 48 45
 42 42 91 91 91 91 91 91 20 20 20 20 53 53 53 53 53 100 100 100
 100 100 100 42 42 42 42 91 91 91 91 91 91 62 62 20 20 53 53 53
 53 53 100 100 100 100 100 42 42 42 42 42 42 91 91 91 91 62 62 62
 62 53 53 53 53 53 23 23 23 23 100 100 42 42 42 42 42 42 91 91
 91 91 62 62 62 62 53 53 53 53 23 23 23 23 23 100 42 42 42 42
 42 42 42 91 91 91 91 62 62 62 62 53 53 53 23 23 23 23 23 23
 88 88 42 42 42 42 42 91 91 91 91 91 91 62 62 62 62 53 53 23
 23 23 23 23 23 40 40 40 40 40 40 40 91 91 91 91 91 91 91 91
 62 62 101 101 101 101 101 101 101 101 2 2 2 2 40 40 40 91 91 91
 91 91 91 91 28 28 101 101 101 101 101 101 101 101 101 2 2 2 2 2
 40 40 40 39 39 39 39 39 39 28 28 101 101 101 101 101 101 101 101 101
 55 2 2 2 2 2 40 40 39 39 39 39 39 39 28 28 101 101 101 101
 101 101 101 101 101 55 55 55 2 2 34 40 39 39 39 39 39 39 39 39
 28 101 101 101 101 101 101 101 101 101 55 55 55 55 34 34 34 39 39 39
 39 39 39 39 39 28 101 101 101 101 101 101 101 101 55 55 55 55 55 34
 34 34 39 39 39 39 39 39 39 39 39 101 101 101 101 101 101 101 55 55
 55 55 55 55 55 34 61 61 61 39 39 39 39 39 39 39 101 101 101 101
 101 101 101 55 55 55 55 55 55 55 61 61 61 61 33 39 39 39 39 39
 39 39 101 101 65 65 101 101 55 55 55 55 55 55 34 61 61 61 61 33
 33 33 39 39 39 39 39 65 65 65 65 87 48 48 48 48 48 48 48 48
 61 61 61 61 33 33 33 39 39 24 47 46 65 65 65 65 48 48 48 48
 48 48 48 48 48 48 61 61 61 33 33 33 24 47 47 47 46 46 46 65
 87 48 48 48 48 48 48 48 48 48 48 48 45 61 33 33 24 24 47 47
 47 46 46 46 46 48 48 48 48 48 48 48 48 48 48 48 45 45 45 56
 27 27 27 47 47 47 46 46 46 46 48 48 48 48 48 48 48 48 48 48
 48 45 45 45 27 27 27 27 27 38 46 46 46 46 46 48 48 48 48 48
 48 48 48 48 48 48 45 45 45 27 27 27 27 27 27 20 46 46 46 8
 8 48 48 48 48 48 48 48 48 48 45 45 45 45 27 27 27 27 20 20
 20 20 20 53 53 53 100 100 100 48 100 48 48 48 48 45 45 45 45 69
 69 69 69 20 20 20 20 20 8 90 90 90 100 100 100 100 100 48 48 48
 45 45 91 91 91 69 69 69 20 20 20 20 20 53 90 90 90 100 100 100
 100 100 100 48 48 42 91 91 91 91 91 91 91 91 20 20 20 20 53 53
 90 90 100 100 100 100 100 100 88 42 42 42 91 91 91 91 91 91 91 91
 20 20 53 53 53 23 23 23 100 100 100 100 88 42 42 42 42 91 91 91
 91 91 91 62 62 62 91 53 53 23 23 23 23 23 23 100 88 42 42 42
 42 42 91 91 91 91 91 91 62 62 62 91 53 23 23 23 23 23 23 23
 88 88 88 88 42 42 42 91 91 91 91 91 91 62 62 62 91 53 23 23
 23 23 23 23 23 88 88 88 40 40 42 91 91 91 91 91 91 91 91 91
 91 91 53 23 23 23 23 23 23 23 99 88 40 40 40 40 40 91 91 91
 91 91 91 91 91 91 91 101 101 101 101 23 23 23 23 99 99 99 40 40
 40 40 91 91 91 91 91 91 91 28 28 28 101 101 101 101 101 101 101 101
 99 99 99 2 40 40 40 40 39 39 39 39 39 39 28 28 28 101 101 101
 101 101 101 101 101 99 99 99 99 2 40 40 40 39 39 39 39 39 39 28
 28 28 101 101 101 101 101 101 101 101 99 99 99 99 2 98 98 39 39 39
 39 39 39 39 28 28 28 101 101 101 101 101 101 101 101 55 55 55 55 55
 34 98 39 39 39 39 39 39 39 39 28 101 101 101 101 101 101 101 101 55
 55 55 55 55 55 34 34 39 39 39 39 39 39 39 39 28 101 101 101 101
 101 101 101 55 55 55 55 55 55 55 61 61 61 61 39 39 39 39 39 39
 39 101 101 101 101 101 101 101 55 55 55 55 55 55 55 61 61 61 61 61
 39 39 39 39 39 39 87 87 87 87 87 87 87 55 55 55 55 55 55 61
 61 61 61 61 61 61 39 39 39 39 71 87 87 87 87 87 87 87 48 48
 48 48 48 48 48 61 61 61 61 61 61 33 39 38 71 71 71 87 87 87
 87 87 87 48 48 48 48 48 48 48 61 61 61 61 61 61 61 38 38 38
 38 71 87 87 87 87 87 48 48 48 48 48 48 48 48 48 61 61 61 56
 56 38 38 38 38 38 38 46 87 87 87 87 48 48 48 48 48 48 48 48
 48 48 45 56 56 56 56 38 38 38 38 38 38 46 87 87 48 48 48 48
 48 48 48 48 48 48 48 45 56 56 56 27 27 38 38 38 38 38 8 8
 8 48 48 48 48 48 48 48 48 48 48 48 45 79 79 79 27 27 38 38
 38 38 38 8 8 8 48 48 48 48 48 48 48 48 48 48 45 45 79 79
 79 27 27 20 20 20 20 20 8 8 90 90 100 100 48 100 48 48 25 25
 25 25 25 69 69 69 69 69 38 20 20 20 8 8 90 90 90 90 90 100
 100 100 48 25 25 25 25 91 69 69 69 69 69 91 20 20 20 20 8 90
 90 90 90 100 100 100 100 100 88 25 25 91 91 91 91 91 69 91 91 91
 20 20 20 53 90 90 90 90 100 100 100 100 88 88 88 42 91 91 91 91
 91 91 91 91 91 91 91 53 53 23 23 23 23 23 100 100 88 88 88 88
 42 91 91 91 91 91 91 91 91 91 91 91 53 23 23 23 23 23 23 23
 88 88 88 88 88 88 91 91 91 91 91 91 91 91 91 91 91 53 23 23
 23 23 23 23 23 88 88 88 88 88 88 91 91 91 91 91 91 91 91 91
 91 91 91 23 23 23 23 23 23 23 88 88 88 88 88 91 91 91 91 91
 91 91 91 91 91 91 91 23 23 23 23 23 23 23 23 99 88 88 88 40
 40 91 91 91 91 91 91 91 91 91 91 91 101 101 101 23 23 23 23 23
 99 99 99 88 40 40 40 91 91 91 91 91 91 91 28 28 28 101 101 101
 101 101 101 101 101 99 99 99 99 98 98 98 98 39 39 39 39 39 28 28
 28 28 101 101 101 101 101 101 101 101 99 99 99 99 98 98 98 98 39 39
 39 39 39 28 28 28 28 101 101 101 101 101 101 101 99 99 99 99 99 98
 98 98 70 39 39 39 39 39 39 28 28 28 101 101 101 101 101 101 101 99
 99 99 99 99 99 70 70 70 70 39 39 39 39 39 28 28 28 101 101 101
 101 101 101 101 99 55 55 99 99 70 70 70 70 70 39 39 39 39 39 39
 28 28 101 101 101 101 101 101 101 55 55 55 55 55 55 70 70 61 61 61
 39 39 39 39 39 39 28 101 87 87 87 87 87 87 55 55 55 55 55 55
 61 61 61 61 61 61 39 39 39 39 71 87 87 87 87 87 87 87 87 55
 48 55 55 48 61 61 61 61 61 61 61 39 39 39 71 71 71 87 87 87
 87 87 87 87 48 48 48 48 48 48 61 61 61 61 61 61 39 38 38 71
 71 71 87 87 87 87 87 87 87 48 48 48 48 48 48 61 61 61 61 61
 61 38 38 38 38 71 71 87 87 87 87 87 87 48 48 48 48 48 48 48
 48 61 61 61 56 56 38 38 38 38 38 38 38 87 87 87 87 87 48 48
 48 48 48 48 48 48 48 61 56 56 56 56 38 38 38 38 38 38 87 87
 87 87 87 48 48 48 48 48 48 48 25 25 25 56 56 56 56 38 38 38
 38 38 38 8 8 8 8 48 48 48 48 48 48 48 25 25 25 25 79 79
 79 38 38 38 38 38 38 38 8 8 8 8 48 48 48 48 48 48 48 25
 25 25 25 79 79 79 69 38 38 38 38 38 8 8 8 8 90 90 90 48
 100 25 25 25 25 25 25 25 25 69 69 69 69 38 38 38 38 8 8 8
 90 90 90 90 100 100 25 25 25 25 25 25 91 91 91 69 69 69 91 91
 38 38 8 8 90 90 90 90 90 100 100 88 88 88 25 25 91 91 91 91
 91 69 91 91 91 91 91 8 8 90 90 90 90 90 100 88 88 88 88 88
 88 91 91 91 91 91 91 91 91 91 91 91 91 23 23 23 23 23 23 23
 88 88 88 88 88 88 91 91 91 91 91 91 91 91 91 91 91 91 23 23
 23 23 23 23 23 88 88 88 88 88 88 91 91 91 91 91 91 91 91 91
 91 91 91 23 23 23 23 23 23 23 88 88 88 88 88 88 88 91 91 91
 91 91 91 91 91 91 91 91 23 23 23 23 23 23 23 88 88 88 88 88
 88 88 91 91 91 91 91 91 91 91 91 91 91 23 23 23 23 23 23 23
 88 88 88 88 88 88 88 91 91 91 91 91 91 91 91 91 91 91 23 23
 23 23 23 23 23 99 99 88 88 88 98 98 91 91 91 91 91 91 91 28
 28 28 101 101 101 101 101 101 101 101 99 99 99 99 98 98 98 98 91 39
 39 39 39 28 28 28 28 101 101 101 101 101 101 101 99 99 99 99 99 98
 98 98 98 39 39 39 39 39 28 28 28 28 101 101 101 101 101 101 101 99
 99 99 99 99 98 98 98 70 39 39 39 39 39 39 28 28 28 101 101 101
 101 101 101 99 99 99 99 99 99 99 70 70 70 70 39 39 39 39 39 28
 28 28 101 101 101 101 101 101 99 99 99 99 99 99 70 70 70 70 70 70
 39 39 39 39 39 28 28 101 101 101 87 87 87 87 99 99 99 99 99 70
 70 70 70 70 70 70 39 39 39 39 39 87 87 87 87 87 87 87 87 87
 55 55 55 55 70 70 61 61 61 61 61 39 39 39 71 71 87 87 87 87
 87 87 87 87 87 48 48 55 48 61 61 61 61 61 61 61 61 39 71 71
 71 71 87 87 87 87 87 87 87 87 48 48 48 48 61 61 61 61 61 61
 61 61 22 71 71 71 71 87 87 87 87 87 87 87 87 48 48 48 48 48
 61 61 61 61 61 61 22 22 22 71 71 71 71 87 87 87 87 87 87 48
 48 48 48 48 25 25 61 61 61 56 22 22 22 22 38 71 71 38 87 87
 87 87 87 87 48 48 48 48 25 25 25 25 25 56 56 56 22 22 22 38
 38 38 38 8 8 87 87 87 87 48 48 48 25 25 25 25 25 25 25 56
 38 38 22 38 38 38 38 38 8 8 8 8 8 48 48 48 48 25 25 25
 25 25 25 79 79 79 38 38 38 38 38 38 8 8 8 8 8 8 48 48
 48 48 25 25 25 25 25 25 79 79 79 38 38 38 38 38 38 8 8 8
 8 8 90 90 48 25 25 25 25 25 25 25 25 25 3 3 3 38 38 38
 38 38 8 8 8 8 8 90 90 90 25 25 25 25 25 25 25 25 3 3
 3 3 3 3 38 38 38 8 8 8 8 90 90 90 100 88 88 88 88 88
 25 25 3 3 3 3 3 3 91 91 91 91 8 8 8 90 90 90 90 100
 88 88 88 88 88 88 88 91 3 3 3 91 91 91 91 91 91 91 57 23
 23 23 23 23 23 88 88 88 88 88 88 88 91 91 91 91 91 91 91 91
 91 91 57 57 23 23 23 23 23 23 88 88 88 88 88 88 88 91 91 91
 91 91 91 91 91 91 91 57 57 57 23 23 23 23 23 88 88 88 88 88
 88 88 91 91 91 91 91 91 91 91 91 91 57 57 23 23 23 23 23 23
 88 88 88 88 88 88 88 88 91 91 91 91 91 91 91 91 91 57 57 23
 23 23 23 23 23 88 88 88 88 88 88 88 88 91 91 91 91 91 91 91
 91 91 91 23 23 23 23 23 23 23 88 88 88 88 88 88 88 88 91 91
 91 91 91 91 91 28 28 35 35 35 35 35 101 101 99 44 44 44 98 98
 98 98 98 98 91 39 39 91 91 28 28 28 35 35 35 35 35 101 101 99
 99 99 44 98 98 98 98 98 98 39 39 39 39 28 28 28 28 35 35 35
 35 35 101 99 99 99 99 99 44 98 98 98 98 98 39 39 39 39 39 28
 21 21 35 35 35 35 101 101 99 99 99 99 99 99 44 98 70 70 70 70
 39 39 39 39 21 21 21 21 35 35 87 87 87 99 99 99 99 99 99 44
 70 70 70 70 70 39 39 39 39 21 21 21 87 87 87 87 87 87 87 99
 99 99 99 44 70 70 70 70 70 70 70 39 39 39 17 21 87 87 87 87
 87 87 87 87 99 44 44 44 44 70 70 70 70 70 70 70 70 39 71 71
 71 87 87 87 87 87 87 87 87 87 48 48 44 44 61 61 61 61 61 61
 61 61 71 71 71 71 71 87 87 87 87 87 87 87 87 48 48 48 48 61
 61 61 61 61 61 61 61 71 71 71 71 71 87 87 87 87 87 87 87 87
 48 48 48 25 25 25 61 61 61 61 61 22 22 22 71 71 71 71 87 87
 87 87 87 87 87 48 48 25 25 25 25 25 61 61 61 22 22 22 22 22
 71 71 71 87 87 87 87 87 87 48 48 25 25 25 25 25 25 25 25 56
 22 22 22 22 38 38 38 38 8 8 87 87 87 87 48 48 25 25 25 25
 25 25 25 25 56 22 22 22 38 38 38 38 8 8 8 8 8 8 48 48
 25 25 25 25 25 25 25 25 25 79 38 38 38 38 38 38 38 8 8 8
 8 8 8 48 48 25 25 25 25 25 25 25 25 25 79 38 38 38 38 38
 38 38 8 8 8 8 8 8 90 48 25 25 25 25 25 25 25 25 3 3
 3 3 3 38 38 38 38 8 8 8 8 8 8 90 90 25 25 25 25 25
 25 25 25 3 3 3 3 3 3 38 38 38 8 8 8 8 8 8 90 100
 88 88 88 88 88 88 25 3 3 3 3 3 3 3 3 3 38 8 8 8
 8 8 90 90 88 88 88 88 88 88 88 88 3 3 3 3 3 3 3 3
 3 91 57 57 57 57 23 23 23 88 88 88 88 88 88 88 88 3 3 3
 3 3 3 3 3 91 91 57 57 57 57 23 23 23 88 88 88 88 88 88
 88 88 88 3 3 3 3 3 3 3 91 91 57 57 57 57 23 23 23 88
 88 88 88 88 88 88 88 88 3 3 3 3 3 3 91 91 91 57 57 57
 57 23 23 23 88 88 88 88 88 88 88 88 88 3 3 3 3 3 91 91
 91 91 57 57 57 57 23 23 23 88 88 88 88 88 88 88 88 88 88 91
 91 91 91 91 91 91 91 35 35 57 57 23 23 23 88 88 88 88 88 88
 88 88 88 88 91 91 91 91 91 91 21 21 35 35 35 35 35 35 44 44
 44 44 44 88 98 98 98 98 98 91 39 39 91 21 21 21 21 35 35 35
 35 35 35 44 44 44 44 44 44 98 98 98 98 98 91 39 39 7 21 21
 21 21 35 35 35 35 35 35 44 44 44 44 44 44 98 98 98 98 70 70
 39 39 7 21 21 21 21 21 35 35 35 35 35 44 44 44 44 44 44 44
 70 70 70 70 70 39 39 39 21 21 21 21 21 35 35 35 87 87 44 44
 44 44 44 44 44 70 70 70 70 70 70 17 17 17 21 21 21 21 87 87
 87 87 87 44 44 44 44 44 44 44 70 70 70 70 70 70 70 17 17 17
 21 21 21 87 87 87 87 87 87 44 44 44 44 44 44 70 70 70 70 70
 70 17 17 17 17 17 21 87 87 87 87 87 87 87 87 44 44 44 44 70
 70 70 70 70 70 70 17 17 17 71 71 71 87 87 87 87 87 87 87 87
 30 30 30 25 25 61 61 61 61 61 61 22 22 71 71 71 71 87 87 87
 87 87 87 87 87 30 30 25 25 25 25 61 61 61 61 22 22 22 22 71
 71 71 87 87 87 87 87 87 87 87 25 25 25 25 25 25 25 25 9 61
 22 22 22 22 22 71 71 87 87 87 87 87 87 87 87 25 25 25 25 25
 25 25 25 25 25 22 22 22 22 38 38 38 38 8 8 87 87 87 87 87
 25 25 25 25 25 25 25 25 25 25 38 38 38 38 38 38 38 8 8 8
 8 8 8 87 48 25 25 25 25 25 25 25 25 25 79 38 38 38 38 38