# vtk DataFile Version 2.0
Data set from ImportExport Version 6.5.141.ec284b7a5
ASCII

DATASET RECTILINEAR_GRID
DIMENSIONS 26 26 26
X_COORDINATES 26 float
-3.000000 3.000000 9.000000 15.000000 21.000000 27.000000 33.000000 39.000000 45.000000 51.000000 57.000000 63.000000 69.000000 75.000000 81.000000 87.000000 93.000000 99.000000 105.000000 111.000000 117.000000 
123.000000 129.000000 135.000000 141.000000 147.000000 
Y_COORDINATES 26 float
-3.000000 3.000000 9.000000 15.000000 21.000000 27.000000 33.000000 39.000000 45.000000 51.000000 57.000000 63.000000 69.000000 75.000000 81.000000 87.000000 93.000000 99.000000 105.000000 111.000000 117.000000 
123.000000 129.000000 135.000000 141.000000 147.000000 
Z_COORDINATES 26 float
-3.000000 3.000000 9.000000 15.000000 21.000000 27.000000 33.000000 39.000000 45.000000 51.000000 57.000000 63.000000 69.000000 75.000000 81.000000 87.000000 93.000000 99.000000 105.000000 111.000000 117.000000 
123.000000 129.000000 135.000000 141.000000 147.000000 
CELL_DATA 15625
SCALARS FeatureIds int 1
LOOKUP_TABLE default
 98 72 72 93 93 93 93 93 93 93 20 20 20 20 20 41 41 41 41 41
 41 41 98 98 98 72 72 72 72 93 93 93 93 93 93 20 20 20 20 20
 41 41 41 41 41 41 88 88 98 98 72 72 72 72 93 93 93 93 93 20
 20 20 20 20 20 41 41 41 41 41 41 88 88 88 98 29 72 72 43 43
 43 43 43 93 20 20 20 20 20 20 41 41 41 41 41 88 88 88 88 29
 29 29 43 43 43 43 43 43 43 38 20 20 20 20 20 41 41 41 41 41
 88 88 29 29 29 29 29 43 43 43 43 43 43 38 38 38 20 20 20 20
 41 41 41 41 41 88 29 29 29 29 29 29 43 43 43 43 43 38 38 38
 96 96 96 96 84 84 41 41 41 32 88 29 29 29 29 29 29 43 43 43
 43 43 38 38 38 96 96 96 96 84 84 32 32 32 32 32 32 29 29 29
 29 29 43 43 43 43 26 38 38 38 96 96 96 96 44 44 32 32 32 32
 32 32 32 29 29 53 53 53 43 43 26 26 26 26 38 96 96 92 92 44
 44 44 32 32 32 32 32 32 53 53 53 53 53 6 6 26 26 26 26 26
 92 92 92 92 44 44 44 32 32 32 32 32 53 53 53 53 53 6 6 6
 6 6 26 42 42 92 92 92 92 92 44 44 32 32 32 32 32 53 53 53
 53 53 6 6 6 6 6 6 42 42 92 92 92 92 92 92 44 32 32 32
 32 32 53 53 53 94 6 6 6 6 6 6 6 42 42 42 92 92 92 92
 92 92 92 32 32 32 32 53 53 53 94 94 6 6 6 6 6 6 6 42
 42 92 92 92 92 92 92 92 32 12 12 12 12 94 94 94 94 6 6 6
 6 6 6 6 42 42 92 92 92 92 92 92 92 12 12 12 12 12 94 94
 94 94 94 6 6 6 6 6 6 3 59 59 59 92 92 59 59 59 12 12
 12 12 94 94 94 94 94 94 94 6 6 6 6 6 3 3 83 83 83 83
 83 83 83 17 17 12 12 94 94 94 94 94 94 94 94 6 6 6 3 3
 3 83 83 83 83 83 83 83 83 17 94 94 94 94 94 94 94 94 94 94
 93 93 93 3 3 3 83 83 83 83 83 83 83 83 83 94 94 94 94 94
 94 94 94 94 94 93 93 93 93 93 3 83 83 83 83 83 83 83 8 25
 25 94 94 94 94 94 94 94 94 93 93 93 93 93 93 93 83 83 83 83
 83 83 8 8 25 25 25 94 94 94 94 94 94 94 93 93 93 93 93 93
 93 93 77 77 77 83 8 8 8 25 25 25 98 98 98 98 94 94 93 93
 93 93 93 93 93 93 93 77 77 77 41 8 8 8 25 25 25 98 98 98
 98 98 94 93 93 93 93 93 93 93 93 20 20 20 20 41 41 41 41 41
 41 41 98 98 98 72 72 72 93 93 93 93 93 93 93 20 20 20 20 20
 41 41 41 41 41 41 41 98 98 98 72 72 72 93 93 93 93 93 93 93
 20 20 20 20 20 41 41 41 41 41 41 41 88 98 98 72 72 72 72 93
 93 93 93 93 20 20 20 20 20 20 41 41 41 41 41 41 41 88 88 98
 72 72 72 43 43 43 43 93 93 20 20 20 20 20 20 41 41 41 41 41
 41 88 88 88 29 29 31 43 43 43 43 43 43 38 38 20 20 20 84 20
 41 41 41 41 41 41 88 29 29 29 29 31 43 43 43 43 43 38 38 38
 38 84 84 84 84 84 41 41 41 41 88 29 29 29 29 29 31 43 43 43
 43 38 38 38 38 96 96 96 84 84 84 41 41 41 41 88 29 29 29 29
 31 31 31 43 43 43 38 38 38 38 96 96 96 84 84 84 32 32 32 32
 32 32 29 29 29 31 31 31 43 43 26 26 26 38 38 96 96 96 96 44
 44 32 32 32 32 32 32 32 53 29 53 53 53 26 26 26 26 26 26 38
 96 96 92 92 92 44 44 32 32 32 32 32 32 53 53 53 53 53 6 26
 26 26 26 26 26 92 92 92 92 92 92 44 32 32 32 32 32 53 53 53
 53 53 53 6 6 26 26 26 26 26 92 92 92 92 92 92 92 32 32 54
 32 53 53 53 53 53 53 6 6 6 6 6 6 42 42 92 92 92 92 92
 92 92 92 32 54 32 53 53 53 53 94 94 6 6 6 6 6 6 42 42
 92 92 92 92 92 92 92 92 32 54 12 12 12 53 53 94 94 94 6 6
 6 6 6 6 42 59 92 92 92 92 92 92 92 12 12 12 12 12 12 94
 94 94 94 94 6 6 6 6 6 59 59 59 59 92 59 59 59 59 12 12
 12 12 12 12 94 94 94 94 94 6 6 6 6 3 3 59 59 59 59 59
 59 59 59 12 12 12 12 12 94 94 94 94 94 94 94 65 6 3 3 3
 3 59 83 83 83 83 59 59 17 17 12 12 94 94 94 94 94 94 94 94
 94 6 3 3 3 3 83 83 83 83 83 83 83 83 17 12 12 94 94 94
 94 94 94 94 94 94 93 3 3 3 3 83 83 83 83 83 83 83 83 17
 94 94 94 94 94 94 94 94 94 94 93 93 93 3 3 3 83 83 83 83
 83 83 8 8 25 94 94 94 94 94 94 94 94 94 93 93 93 93 93 93
 3 83 83 83 83 83 8 8 8 25 25 94 94 94 94 94 94 94 94 93
 93 93 93 93 93 93 93 77 77 77 83 8 8 8 25 25 25 94 94 94
 94 94 94 93 93 93 93 93 93 93 93 93 77 77 77 41 8 8 8 25
 25 25 98 98 94 94 94 94 93 93 93 93 93 93 93 93 20 20 77 20
 41 41 8 41 25 25 25 98 98 98 72 72 72 93 93 93 93 93 93 93
 20 20 20 20 20 41 41 41 41 41 41 41 41 98 98 72 72 72 93 93
 93 93 93 93 93 20 20 20 20 20 41 41 41 41 41 41 41 41 98 98
 72 72 72 72 93 93 93 93 93 93 20 20 20 20 20 41 41 41 41 41
 41 41 41 88 31 31 31 31 31 93 93 93 93 93 20 20 20 20 20 20
 41 41 41 41 41 41 41 88 31 31 31 31 31 31 43 43 43 38 38 38
 20 84 84 84 84 84 41 41 41 41 41 41 29 31 31 31 31 31 31 43
 43 43 38 38 38 84 84 84 84 84 84 41 41 41 41 41 41 31 31 31
 31 31 31 31 43 43 38 38 38 38 96 96 84 84 84 84 84 41 41 52
 52 31 31 31 31 31 31 31 31 43 43 38 38 38 38 96 96 96 84 84
 84 84 52 52 52 52 32 31 31 31 31 31 31 31 43 26 26 38 38 38
 96 96 96 49 49 49 62 62 32 52 32 32 31 31 31 53 53 31 31 26
 26 26 26 26 38 49 49 49 49 49 49 62 62 54 54 54 32 53 53 53
 53 53 53 53 26 26 26 26 26 49 49 49 49 49 49 49 62 62 54 54
 54 53 53 53 53 53 53 53 6 6 26 26 26 26 49 49 92 92 92 92
 92 62 62 54 54 54 53 53 53 53 53 53 94 6 6 6 6 6 42 92
 92 92 92 92 92 92 62 62 54 54 54 53 53 53 53 94 94 94 6 6
 6 6 6 42 42 92 92 92 92 92 92 59 62 54 54 12 12 12 53 53
 94 94 94 94 65 65 65 65 65 59 59 59 59 59 59 59 59 62 60 60
 12 12 12 12 12 94 94 94 94 65 65 65 65 65 59 59 59 59 59 59
 59 59 59 60 60 12 12 12 60 94 94 94 94 94 65 65 65 65 3 3
 59 59 59 59 59 59 59 59 12 12 12 12 12 60 94 94 94 94 94 65
 65 65 3 3 3 3 59 59 59 59 59 59 59 17 17 12 12 12 94 94
 94 94 94 94 94 65 65 3 3 3 3 3 83 83 83 83 83 83 17 17
 12 12 94 94 94 94 94 94 94 94 65 3 3 3 3 3 3 83 83 83
 83 83 83 83 17 12 94 94 94 94 94 94 94 94 94 93 93 3 3 3
 3 3 83 83 83 83 83 83 8 25 94 94 94 94 94 94 94 94 94 94
 93 93 93 93 3 3 3 83 83 83 83 83 8 8 25 25 94 94 94 94
 94 94 94 94 93 93 93 93 93 93 93 93 77 77 77 83 8 8 8 25
 25 25 15 15 94 94 94 94 94 93 93 93 93 93 93 93 93 77 77 77
 41 8 8 8 25 25 25 15 15 15 94 94 94 93 93 93 93 93 93 93
 93 20 20 20 20 41 41 41 41 41 41 41 15 15 15 72 72 72 93 93
 93 93 93 93 93 93 20 20 20 20 41 41 41 41 41 41 41 41 41 98
 72 72 72 93 93 93 93 93 93 93 20 20 20 20 20 41 41 41 41 41
 41 41 41 41 31 31 72 72 72 93 93 93 93 93 93 20 20 20 20 20
 41 41 41 41 41 41 41 41 31 31 31 31 31 31 93 93 93 93 93 20
 20 20 84 84 20 41 41 41 41 41 41 41 31 31 31 31 31 31 31 31
 43 93 93 38 84 84 84 84 84 84 84 41 41 41 41 41 31 31 31 31
 31 31 31 31 31 43 43 38 38 38 84 84 84 84 84 84 41 41 41 41
 41 31 31 31 31 31 31 31 31 31 43 38 38 38 38 96 84 84 84 84
 84 84 52 52 52 52 31 31 31 31 31 31 31 31 31 43 38 38 38 38
 46 84 84 84 84 84 84 52 52 52 52 31 31 31 31 31 31 31 31 31
 50 26 38 38 46 46 49 49 49 49 49 62 62 62 52 52 31 31 31 31
 31 31 31 31 50 26 26 26 26 49 49 49 49 49 49 49 62 62 62 54
 54 54 31 31 31 53 53 31 31 50 50 26 26 49 49 49 49 49 49 49
 49 62 62 54 54 54 54 53 53 53 53 53 53 65 50 50 26 26 49 49
 49 49 49 49 49 49 62 62 54 54 54 54 53 53 53 97 97 97 65 65
 65 65 65 49 49 49 49 49 49 49 49 62 62 54 54 54 54 53 53 53
 97 97 97 65 65 65 65 65 49 49 49 59 59 59 59 59 62 62 62 54
 12 12 12 53 97 97 97 94 65 65 65 65 65 65 59 59 59 59 59 59
 59 59 59 60 60 60 12 12 60 97 94 94 94 65 65 65 65 65 65 59
 59 59 59 59 59 59 59 59 60 60 60 12 60 60 94 94 94 94 94 65
 65 65 65 3 3 59 59 59 59 59 59 59 59 60 60 12 12 60 60 94
 94 94 94 94 65 65 65 65 3 3 3 59 59 59 59 59 59 59 17 17
 12 12 12 94 94 94 94 94 94 65 65 65 3 3 3 3 3 83 83 83
 59 59 59 17 17 12 12 94 94 94 94 94 94 94 94 65 65 3 3 3
 3 3 83 83 83 83 83 83 17 17 12 94 94 94 94 94 94 94 94 94
 65 3 3 3 3 3 3 83 83 83 83 83 83 17 17 94 94 94 94 94
 94 94 94 94 94 93 93 93 3 3 3 3 83 83 83 83 83 8 8 25
 94 94 94 94 94 94 94 94 94 94 93 93 93 93 93 93 3 77 77 77
 41 8 8 8 25 25 15 15 15 94 94 94 94 94 93 93 93 93 93 93
 93 93 20 20 20 41 41 41 41 41 25 15 15 15 15 94 94 94 94 93
 93 93 93 93 93 93 20 20 20 20 41 41 41 41 41 41 41 15 15 15
 72 72 72 93 93 93 93 93 93 93 93 20 20 20 20 41 41 41 41 41
 41 41 41 41 31 31 31 72 16 16 93 93 93 93 93 20 20 20 20 20
 41 41 41 41 41 41 41 41 31 31 31 31 31 31 16 93 93 93 93 93
 20 20 20 20 20 41 41 41 41 41 41 41 31 31 31 31 31 31 31 31
 93 93 93 93 104 104 20 84 84 84 41 41 41 41 41 41 41 31 31 31
 31 31 31 31 31 31 93 93 38 84 84 84 84 84 84 84 41 41 41 41
 41 31 31 31 31 31 31 31 31 31 31 31 38 38 84 84 84 84 84 84
 84 84 41 41 41 31 31 31 31 31 31 31 31 31 31 31 38 38 46 46
 46 84 84 84 84 84 84 41 52 52 31 31 31 31 31 31 31 31 31 31
 50 50 38 46 46 46 46 84 84 84 49 49 62 52 52 52 31 31 31 31
 31 31 31 31 50 50 50 46 46 46 46 46 49 49 49 49 49 62 62 52
 52 31 31 31 31 31 31 31 31 50 50 50 50 26 46 46 49 49 49 49
 49 62 62 62 62 54 61 31 31 31 31 31 31 50 50 50 50 26 49 49
 49 49 49 49 49 49 62 62 62 54 54 61 61 53 31 97 97 97 50 50
 50 50 26 49 49 49 49 49 49 49 49 62 62 62 54 54 61 61 97 97
 97 97 97 65 65 65 65 65 102 49 49 49 49 49 49 49 62 62 62 54
 54 61 97 97 97 97 97 97 65 65 65 65 65 102 49 49 49 49 49 49
 49 62 62 62 62 12 12 97 97 97 97 97 94 65 65 65 65 65 65 49
 59 59 59 59 59 59 59 62 62 60 12 12 12 97 97 97 97 94 65 65
 65 65 65 65 59 59 59 59 59 59 59 59 59 60 60 12 12 12 97 97
 94 94 94 65 65 65 65 65 65 3 59 59 59 59 59 59 59 59 12 12
 12 12 12 97 97 94 94 94 65 65 65 65 65 3 3 3 59 59 59 59
 59 59 59 17 17 12 12 97 94 94 94 94 94 94 65 65 65 65 3 3
 3 3 59 59 59 59 59 59 17 17 97 97 94 94 94 94 94 94 94 65
 65 65 3 3 3 3 3 3 83 83 83 83 83 17 17 97 97 94 94 94
 94 94 94 94 94 65 65 3 3 3 3 3 3 83 83 83 83 69 69 17
 94 94 94 94 94 22 22 22 94 94 94 93 3 3 3 3 3 3 83 83
 83 41 41 69 25 94 94 94 94 94 22 22 22 94 94 93 93 93 93 3
 3 3 3 77 77 41 41 41 41 25 25 15 15 22 22 22 22 94 94 93
 93 93 93 93 93 93 93 20 20 20 41 41 41 41 41 41 15 15 15 22
 22 94 94 94 93 93 93 93 93 93 93 20 20 20 20 41 41 41 41 41
 41 41 15 15 22 31 31 16 16 16 16 16 16 93 104 104 104 104 104 20
 41 41 41 41 41 41 85 85 85 31 31 31 31 16 16 16 16 93 104 104
 104 104 104 104 20 41 41 41 41 41 41 85 85 31 31 31 31 31 16 16
 16 16 93 104 104 104 104 104 104 20 41 41 41 41 41 41 85 31 31 31
 31 31 31 31 31 16 16 93 104 104 104 104 104 104 84 41 41 41 41 41
 41 31 31 31 31 31 31 31 31 31 31 31 93 104 104 104 84 84 84 84
 84 41 41 41 41 31 31 31 31 31 31 31 31 31 31 31 31 31 46 46
 46 84 84 84 84 84 84 41 41 31 31 31 31 31 31 31 31 31 31 31
 31 31 46 46 46 46 46 84 84 84 84 84 62 52 31 31 31 31 31 31
 31 31 31 31 31 50 50 46 46 46 46 46 46 37 49 49 49 62 62 52
 31 31 31 31 31 31 31 31 31 50 50 50 46 46 46 46 46 49 49 49
 49 49 62 62 62 31 31 31 31 31 31 31 31 31 50 50 50 50 46 46
 46 49 49 49 49 49 62 62 62 62 62 31 31 31 31 31 31 31 50 50
 50 50 103 103 103 49 49 49 49 49 49 62 62 62 62 61 61 61 31 31
 97 97 97 50 50 50 50 103 103 103 49 49 49 49 49 49 62 62 62 62
 61 61 61 97 97 97 97 97 65 65 65 65 102 102 102 49 49 49 49 49
 49 62 62 62 62 61 61 97 97 97 97 97 97 65 65 65 65 102 102 102
 102 49 49 49 49 49 62 62 62 62 97 97 97 97 97 97 97 97 65 65
 65 65 65 102 102 102 59 59 59 59 59 62 62 62 97 97 97 97 97 97
 97 97 65 65 65 65 65 65 65 102 59 59 59 59 59 59 59 62 97 97
 97 97 97 97 97 97 94 65 65 65 65 65 65 65 3 59 59 59 59 59
 59 59 59 97 97 97 97 97 97 97 94 94 94 65 65 65 65 65 65 3
 3 59 59 59 59 59 59 59 97 97 97 97 97 97 97 94 94 94 65 65
 65 65 65 3 3 3 3 59 59 59 59 59 59 97 97 97 97 97 97 94
 94 94 94 94 65 65 65 65 3 3 3 3 3 83 83 59 59 69 69 97
 97 97 97 94 94 22 22 22 22 65 65 65 3 3 3 3 3 3 83 83
 83 69 69 69 69 97 97 94 94 94 22 22 22 22 94 65 65 3 3 3
 3 3 3 83 83 69 69 69 69 69 94 94 94 94 22 22 22 22 22 94
 93 93 93 93 3 3 3 3 104 77 69 69 69 69 69 22 22 22 22 22
 22 22 22 94 94 93 93 93 93 93 93 104 104 104 20 41 41 41 41 41
 41 15 15 15 22 22 22 22 94 93 93 93 93 93 93 104 104 104 104 20
 41 41 41 41 41 41 41 15 15 22 90 16 16 16 16 16 16 16 104 104
 104 104 104 104 104 104 41 41 41 85 85 85 85 85 85 90 90 16 16 16
 16 16 16 104 104 104 104 104 104 104 104 41 41 41 41 85 85 85 85 31
 90 90 90 16 16 16 16 104 104 104 104 104 104 104 104 104 41 41 41 85
 85 85 85 31 31 31 90 90 90 16 16 16 104 104 104 104 104 104 104 104
 104 41 41 41 41 85 31 31 31 31 31 31 31 31 31 31 47 104 104 104
 104 104 104 104 104 104 39 41 41 41 31 31 31 31 31 31 31 31 31 31
 31 31 46 46 46 104 104 37 37 37 37 37 39 39 31 31 31 31 31 31
 31 31 31 31 31 31 50 46 46 46 46 46 37 37 37 37 37 39 39 31
 31 31 31 31 31 31 31 31 31 31 50 50 46 46 46 46 46 37 37 37
 37 37 62 57 57 31 31 31 31 31 31 31 31 31 50 50 50 50 46 46
 46 46 37 37 37 49 49 62 57 57 57 31 31 31 31 31 31 31 50 50
 50 50 50 46 46 46 49 49 49 49 49 62 62 62 57 57 31 31 31 31
 31 31 31 50 50 50 50 103 103 103 103 49 49 49 49 49 62 62 62 62
 57 61 61 31 31 97 97 97 50 50 50 50 103 103 103 103 49 49 49 49
 49 62 62 62 62 61 61 61 97 97 97 97 97 97 65 50 102 102 102 102
 102 49 49 49 49 49 62 62 62 62 97 61 97 97 97 97 97 97 65 65
 65 65 102 102 102 102 49 49 49 49 49 62 62 62 62 97 97 97 97 97
 97 97 97 65 65 65 65 102 102 102 102 49 49 49 49 49 62 62 62 97
 97 97 97 97 97 97 97 97 65 65 65 65 65 102 102 102 59 59 59 59
 59 59 62 97 97 97 97 97 97 97 97 97 65 65 65 65 65 65 65 65
 59 59 59 59 59 59 59 97 97 97 97 97 97 97 97 97 94 65 65 65
 65 65 65 65 3 3 59 59 59 59 59 59 97 97 97 97 97 97 97 97
 94 94 94 65 65 65 65 65 65 3 3 3 59 59 59 59 59 97 97 97
 97 97 97 97 97 94 94 94 65 65 65 65 65 3 3 3 3 3 83 83
 59 69 69 69 97 97 81 97 97 94 22 22 22 22 65 65 65 65 3 3
 3 3 3 83 83 69 69 69 69 69 81 81 94 94 94 22 22 22 22 22
 65 65 65 3 3 3 3 3 83 69 69 69 69 69 69 81 81 22 22 22
 22 22 22 22 22 65 93 93 93 3 104 104 104 104 104 69 69 69 69 69
 81 81 22 22 22 22 22 22 22 22 16 93 93 93 104 104 104 104 104 104
 104 69 69 69 69 22 22 22 22 22 22 22 22 22 16 16 16 93 104 104
 104 104 104 104 104 104 41 41 41 41 41 22 22 22 22 90 16 16 16 16
 16 16 16 104 104 104 104 104 104 104 104 104 41 41 85 85 85 85 85 85
 90 90 16 16 16 16 16 16 104 104 104 104 104 104 104 104 104 41 41 85
 85 85 85 85 31 90 90 90 16 16 16 16 16 104 104 104 104 104 104 104
 104 104 41 41 85 85 85 85 31 31 90 90 90 90 16 16 16 104 104 104
 104 104 104 104 104 104 39 39 39 85 85 85 31 31 31 31 90 90 31 31
 47 47 104 104 104 104 104 104 104 104 104 39 39 39 39 31 31 31 31 31
 31 31 31 31 31 31 47 104 104 104 104 104 37 37 37 37 39 39 39 39
 31 31 31 31 31 31 31 31 31 31 31 50 91 91 46 46 37 37 37 37
 37 39 39 39 39 31 31 31 31 31 31 31 31 31 31 50 50 91 91 46
 46 46 37 37 37 37 39 39 39 39 31 31 31 31 31 31 31 31 31 50
 50 50 91 91 46 46 46 37 37 37 49 39 39 57 57 57 31 31 31 31
 31 31 31 50 50 50 50 91 91 91 91 91 49 49 49 49 49 62 57 57
 57 87 87 31 31 31 31 31 50 50 50 50 91 103 103 103 49 49 49 49
 49 62 62 62 57 57 87 87 87 87 97 97 97 50 50 50 7 103 103 103
 103 49 49 49 49 49 62 62 62 62 61 87 87 87 87 97 97 97 97 50
 50 102 102 102 102 102 102 49 49 49 49 62 62 62 62 97 97 97 97 97
 97 97 97 97 65 65 102 102 102 102 102 102 49 49 49 49 62 62 62 97
 97 97 97 97 97 97 97 97 65 65 65 65 102 102 102 102 102 49 49 49
 49 62 62 62 97 97 97 97 97 97 97 97 97 65 65 65 65 65 102 102
 102 102 49 49 49 59 59 62 97 97 97 97 97 97 97 97 97 97 65 65
 65 65 65 65 102 102 59 59 59 59 59 59 97 97 97 97 97 97 97 97
 97 97 65 65 65 65 65 65 65 3 3 59 59 59 59 59 67 97 97 97
 97 97 97 97 97 97 94 94 65 65 65 65 65 65 3 3 3 59 59 59
 59 69 97 97 97 97 97 97 97 97 94 94 94 65 65 65 65 65 65 3
 3 3 3 83 69 69 69 69 69 97 81 81 81 97 97 22 22 22 22 65
 65 65 65 65 3 3 35 35 83 69 69 69 69 69 69 81 81 81 94 94
 22 22 22 22 22 65 65 65 3 3 104 104 104 104 69 69 69 69 69 69
 81 81 81 22 22 22 22 22 22 22 65 35 35 35 104 104 104 104 104 104
 69 69 69 69 69 81 81 22 22 22 22 22 22 22 16 16 16 35 104 104
 104 104 104 104 104 104 69 69 69 69 81 22 22 22 22 22 22 22 16 16
 16 16 16 104 104 104 104 104 104 104 104 69 69 69 69 41 22 22 22 22
 90 90 16 16 16 16 16 16 104 104 104 104 104 104 104 104 104 104 70 70
 70 85 85 85 85 90 90 16 16 16 16 16 104 104 104 104 104 104 104 104
 104 104 104 70 70 70 85 85 85 85 90 90 90 16 16 47 47 104 104 104
 104 104 104 104 104 104 104 104 85 85 85 85 85 85 31 90 90 90 90 47
 47 47 104 104 104 104 104 104 104 104 104 39 39 39 39 85 85 31 31 31
 31 90 31 31 47 47 47 47 104 104 104 104 104 104 104 39 39 39 39 39
 39 31 31 31 31 31 31 31 31 47 47 47 47 104 104 104 104 104 37 37
 39 39 39 39 39 39 31 31 31 31 31 31 31 31 31 7 7 91 91 104
 104 37 37 37 37 39 39 39 39 39 39 31 31 31 31 31 31 31 31 7
 7 7 91 91 91 91 37 37 37 37 39 39 39 39 39 39 31 31 31 31
 31 31 31 7 50 50 50 91 91 91 91 91 37 37 37 39 39 39 39 57
 57 31 31 31 31 31 31 31 7 50 50 50 91 91 91 91 91 91 37 49
 49 39 39 57 57 57 87 87 87 87 87 31 7 7 7 50 7 91 91 91
 91 91 49 49 49 49 62 62 62 57 57 87 87 87 87 87 97 97 7 7
 7 7 91 103 103 103 103 49 49 49 49 62 62 62 62 57 87 87 87 87
 97 97 97 7 7 7 7 102 102 102 102 102 49 49 49 49 62 62 62 62
 97 97 87 87 87 97 97 97 97 7 7 102 102 102 102 102 102 49 49 49
 49 62 62 62 97 97 97 97 97 97 97 97 97 97 65 65 65 102 102 102
 102 102 49 49 49 49 62 62 97 97 97 97 97 97 97 97 97 97 65 65
 65 65 102 102 102 102 102 102 49 49 67 67 97 97 97 97 97 97 97 97
 97 97 97 65 65 65 65 65 65 102 102 102 67 67 67 67 67 97 97 97
 97 97 97 97 97 97 97 97 65 65 65 65 65 65 102 102 102 67 67 67
 67 67 97 97 97 97 97 97 97 97 97 97 97 65 65 65 65 65 65 35
 35 3 67 67 67 67 67 67 97 97 97 97 97 97 97 97 97 94 65 65
 65 65 65 65 35 35 35 35 67 67 67 69 69 33 97 81 81 97 97 97
 22 22 22 22 65 65 65 65 35 35 35 35 35 35 69 69 69 69 69 69
 81 81 81 97 94 22 22 22 22 22 95 35 35 35 35 35 35 35 35 35
 69 69 69 69 69 81 81 81 22 22 22 22 22 22 22 95 35 35 35 35
 35 35 104 104 104 69 69 69 69 69 81 81 9 22 22 22 22 22 22 16
 16 35 35 35 35 104 104 104 104 104 104 55 69 69 69 81 9 9 22 22
 22 22 22 16 16 16 16 35 104 104 104 104 104 104 104 104 55 69 69 69
 9 9 9 9 22 64 64 64 64 16 16 35 35 104 104 104 104 104 104 104
 104 104 104 70 70 70 70 70 70 9 64 64 64 64 16 16 16 104 104 104
 104 104 104 104 104 104 104 104 70 70 70 70 70 70 64 64 64 64 64 47
 47 47 104 104 104 104 104 104 104 104 104 104 104 39 70 70 70 70 64 64
 64 64 64 64 47 47 47 104 104 104 104 104 104 104 104 104 104 39 39 39
 70 70 64 64 64 64 64 64 64 47 47 47 47 104 104 104 104 104 104 39
 39 39 39 39 39 39 31 31 64 64 31 64 64 64 64 64 47 47 104 104
 104 104 104 37 39 39 39 39 39 39 39 31 31 31 31 31 31 64 64 7
 7 7 7 91 104 104 37 37 37 39 39 39 39 39 39 39 31 31 31 31
 31 31 31 7 7 7 7 7 91 91 91 91 37 37 39 39 39 39 39 39
 39 31 31 31 31 31 31 7 7 7 7 7 91 91 91 91 91 91 37 39
 39 39 39 39 39 39 39 31 31 31 87 31 7 7 7 7 7 91 91 91
 91 91 91 37 39 39 39 39 39 39 39 87 87 87 87 87 87 7 7 7
 7 7 91 91 91 91 91 91 49 39 39 39 39 39 39 39 87 87 87 87
 87 97 7 7 7 7 7 7 91 91 91 91 91 49 49 49 39 39 39 39
 87 87 87 87 87 87 97 97 7 7 7 7 7 102 102 102 102 49 49 49
 49 62 62 62 97 97 87 87 87 87 97 97 97 7 7 7 7 102 102 102
 102 102 49 49 49 49 62 62 62 97 97 97 97 97 97 97 97 97 97 65
 65 102 102 102 102 102 102 67 67 67 67 67 62 97 97 97 97 97 97 97
 97 97 97 65 65 65 65 102 102 102 102 102 67 67 67 67 67 97 97 97
 97 97 97 97 97 97 97 97 65 65 65 65 65 102 102 102 67 67 67 67
 67 67 67 33 33 97 97 97 97 97 97 97 97 65 65 65 65 65 65 102
 67 67 67 67 67 67 67 67 33 33 33 97 97 97 97 97 97 97 65 65
 65 65 65 65 35 35 67 67 67 67 67 67 33 33 33 33 97 97 97 97
 97 97 97 65 65 65 65 65 35 35 35 35 35 67 67 67 67 33 33 33
 33 97 97 97 97 22 22 22 22 95 95 95 35 35 35 35 35 35 35 67
 67 69 69 33 33 33 81 97 97 97 22 22 22 22 95 95 35 35 35 35
 35 35 35 35 35 69 69 69 69 69 33 81 9 9 9 22 22 22 22 95
 95 35 35 35 35 35 35 35 104 104 55 55 69 69 69 9 9 9 9 9
 9 9 22 22 95 35 35 35 35 35 35 104 104 104 104 55 55 55 55 55
 9 9 9 9 9 9 9 9 9 35 35 35 35 35 104 104 104 104 104 104
 55 55 55 55 55 9 9 9 9 9 9 64 64 64 64 16 35 35 104 104
 104 104 104 104 104 55 55 55 70 70 70 70 70 9 9 64 64 64 64 64
 16 16 104 104 104 104 104 104 104 104 104 104 104 70 70 70 70 70 64 64
 64 64 64 64 64 47 47 104 104 104 104 104 104 104 104 104 104 39 39 70
 70 70 70 64 64 64 64 64 64 64 47 47 104 104 104 104 104 104 104 104
 104 39 39 39 39 39 70 64 64 64 64 64 64 64 64 47 47 47 104 104
 104 104 104 30 30 39 39 39 39 39 39 39 64 64 64 64 64 64 64 64
 64 7 7 104 104 104 104 30 30 30 39 39 39 39 39 39 39 64 64 64
 64 64 64 64 7 7 7 7 7 104 104 104 30 30 39 39 39 39 39 39
 39 39 64 64 64 64 64 64 7 7 7 7 7 91 91 91 91 91 39 39
 39 39 39 39 39 39 39 10 64 64 64 64 7 7 7 7 7 7 91 91
 91 91 91 39 39 39 39 39 39 39 39 39 10 10 10 87 64 7 7 7
 7 7 7 91 91 91 91 91 39 39 39 39 39 39 39 39 87 87 87 87
 87 87 7 7 7 7 7 7 91 91 91 91 91 13 39 39 39 39 39 39
 39 87 87 87 87 87 5 5 7 7 7 7 7 91 91 91 91 13 13 13
 39 39 39 39 39 39 87 87 87 87 87 97 5 5 7 7 7 7 102 102
 102 102 13 13 13 39 39 39 39 97 97 87 87 87 87 97 97 5 5 7
 7 7 7 102 102 102 102 67 13 13 49 62 39 39 97 97 97 97 87 97
 97 97 97 5 7 7 7 102 102 102 102 67 67 67 67 67 67 67 97 97
 97 97 97 97 97 97 97 97 5 65 65 65 102 102 102 67 67 67 67 67
 67 67 67 33 33 33 97 97 97 97 97 97 97 65 65 65 65 65 102 67
 67 67 67 67 67 67 67 67 33 33 33 97 97 97 97 97 97 97 65 65
 65 65 65 65 67 67 67 67 67 67 67 67 33 33 33 33 97 97 97 97
 97 97 97 89 89 65 89 35 35 35 35 67 67 67 67 67 67 33 33 33
 33 97 97 97 97 97 97 97 95 95 95 95 35 35 35 35 35 67 67 67
 67 67 33 33 33 33 97 97 97 97 9 9 9 95 95 95 95 35 35 35
 35 35 35 35 67 67 67 33 33 33 33 9 9 9 9 9 9 9 95 95
 95 95 35 35 35 35 35 35 35 55 55 55 55 33 33 9 9 9 9 9
 9 9 9 95 95 95 95 35 35 35 35 35 35 35 55 55 55 55 55 55
 9 9 9 9 9 9 9 9 95 95 95 35 35 35 35 35 104 104 104 55
 55 55 55 55 55 9 9 9 9 9 9 9 9 9 35 35 35 35 35 35
 104 104 104 104 55 55 55 55 55 55 9 9 9 9 9 9 64 64 64 64
 35 35 35 35 104 104 104 104 104 104 55 55 55 55 70 70 9 9 9 9
 64 64 64 64 64 64 35 104 104 104 104 104 104 104 104 104 55 55 55 70
 70 9 9 64 64 64 64 64 64 64 64 47 104 104 104 104 104 104 104 104
 104 55 39 39 34 70 70 64 64 64 64 64 64 64 64 47 47 104 104 104
 104 104 104 104 104 104 39 39 39 39 39 64 64 64 64 64 64 64 64 64
 64 47 47 104 104 104 104 30 30 30 39 39 39 39 39 39 39 64 64 64
 64 64 64 64 64 64 7 7 7 104 104 30 30 30 30 39 39 39 39 39
 39 39 64 64 64 64 64 64 64 64 7 7 7 7 91 104 30 30 30 30
 39 39 39 39 39 39 39 64 64 64 64 64 64 7 7 7 7 7 7 91
 91 91 30 30 39 39 39 39 39 39 39 39 10 10 64 64 64 64 7 7
 7 7 7 91 91 91 91 91 39 39 39 39 39 39 39 39 10 10 10 10
 10 64 7 7 7 7 7 7 91 91 91 91 91 39 39 39 39 39 39 39
 39 10 10 10 10 10 5 7 7 7 7 7 7 91 91 91 91 13 13 13
 39 39 39 39 39 39 10 10 10 10 87 5 5 5 7 7 7 7 7 91
 91 91 13 13 13 39 39 39 39 39 39 87 87 87 87 100 5 5 5 5
 7 7 7 7 91 91 13 13 13 13 39 39 39 39 39 100 100 100 100 100
 100 5 5 5 5 7 7 7 7 102 102 67 67 67 67 67 67 39 39 100
 100 100 100 100 100 100 5 5 5 5 7 7 7 102 102 67 67 67 67 67
 67 67 67 33 33 100 100 100 100 100 97 97 5 5 5 7 7 80 80 67
 67 67 67 67 67 67 67 56 33 33 33 100 100 100 97 97 97 97 5 89
 89 89 80 80 67 67 67 67 67 67 67 67 56 33 33 33 33 97 97 97
 97 97 97 89 89 89 89 89 80 67 67 67 67 67 67 67 67 56 33 33
 33 33 97 97 97 97 97 89 89 89 89 89 89 35 35 67 67 67 67 67
 67 67 33 33 33 33 33 97 97 97 9 9 9 89 89 89 89 35 35 35
 35 35 67 67 67 67 67 33 33 33 33 33 9 9 9 9 9 9 95 95
 95 95 35 35 35 35 35 35 67 67 67 67 33 33 33 33 9 9 9 9
 9 9 9 95 95 95 95 35 35 35 35 35 35 35 55 55 55 55 33 33
 9 9 9 9 9 9 9 9 95 95 95 95 35 35 35 35 35 35 35 55
 55 55 55 55 9 9 9 9 9 9 9 9 9 9 95 95 35 35 35 35
 35 35 104 55 55 55 55 55 55 9 9 9 9 9 9 9 9 9 9 95
 35 35 35 35 35 104 104 104 104 55 55 55 55 55 9 9 9 9 9 9
 9 9 64 64 64 64 35 35 35 104 104 104 104 104 104 34 34 34 34 34
 9 9 9 9 9 64 64 64 64 64 64 64 35 104 104 104 104 104 104 104
 34 34 34 34 34 9 9 9 9 64 64 64 64 64 64 64 64 64 104 104
 104 104 104 104 104 34 34 34 34 34 34 9 64 64 64 64 64 64 64 64
 64 64 104 104 104 104 104 104 104 104 34 34 34 34 34 34 64 64 64 64
 64 64 64 64 64 64 64 64 104 104 104 104 30 30 30 39 39 39 39 39
 39 39 64 64 64 64 64 64 64 64 64 7 7 7 104 104 30 30 30 30
 39 39 39 39 39 39 39 64 64 64 64 64 64 64 64 7 7 7 7 91
 104 30 30 30 39 39 39 39 39 39 39 39 64 64 64 64 64 64 64 7
 7 7 7 7 91 91 91 11 11 39 39 39 39 39 39 39 39 10 10 64
 10 64 64 7 7 7 7 7 7 91 91 91 11 11 39 39 39 39 39 39
 39 10 10 10 10 10 64 7 7 7 7 7 7 7 91 91 91 91 39 39
 39 39 39 39 39 39 10 10 10 10 10 5 5 7 7 7 7 7 7 91
 91 86 13 13 39 39 39 39 39 39 39 10 10 10 10 100 5 5 5 5
 7 7 7 7 91 86 86 13 13 13 39 39 39 39 39 39 100 100 100 100
 100 5 5 5 5 5 7 7 7 91 86 86 13 13 13 39 39 39 39 100
 100 100 100 100 100 100 5 5 5 5 5 7 7 7 67 67 67 67 67 67
 67 67 39 39 100 100 100 100 100 100 100 5 5 5 5 5 7 7 67 67
 67 67 67 67 67 67 67 67 33 33 100 100 100 100 100 100 5 5 5 5
 5 89 80 80 67 67 67 67 67 67 67 67 56 33 33 33 100 100 100 100
 97 97 5 89 89 89 89 80 80 80 67 67 67 67 67 67 56 56 33 33
 33 33 100 100 100 97 97 89 89 89 89 89 89 80 80 67 67 67 67 67
 67 56 56 33 33 33 33 97 97 97 9 9 89 89 89 89 89 89 80 80
 67 67 67 67 67 67 56 56 33 33 33 33 9 9 9 9 9 89 89 89
 89 89 89 35 35 35 35 67 67 67 67 67 56 33 33 33 9 9 9 9
 9 9 9 89 89 89 89 35 35 35 35 35 35 67 67 67 67 56 33 33
 9 9 9 9 9 9 9 9 9 95 95 95 35 35 35 35 35 35 35 67
 55 55 55 33 9 9 9 9 9 9 9 9 9 9 95 95 35 35 35 35
 35 35 35 35 55 55 55 55 55 9 9 9 9 9 9 9 9 9 9 95
 35 35 35 35 35 35 35 35 55 55 55 55 55 55 9 9 9 9 9 9
 9 9 9 9 9 35 35 35 35 35 35 104 104 104 55 55 55 55 55 9
 9 9 9 9 9 9 9 9 64 64 64 35 35 28 28 104 104 104 104 34
 34 34 34 34 34 9 9 9 9 9 64 64 64 64 64 64 28 28 28 28
 104 104 104 104 34 34 34 34 34 34 34 9 9 9 9 64 64 64 64 64
 64 28 28 28 28 28 104 104 104 34 34 34 34 34 34 34 9 64 64 64
 64 64 64 64 64 64 28 28 28 28 28 104 104 34 34 34 34 34 34 34
 34 34 64 64 64 64 64 64 64 64 64 64 28 28 28 28 104 30 30 34
 34 34 34 34 34 34 34 64 64 64 64 64 64 64 64 64 7 7 36 28
 28 30 30 30 39 39 39 39 39 39 39 39 64 64 64 64 64 64 64 64
 7 7 7 7 7 11 11 11 11 11 39 39 39 39 39 39 39 64 64 64
 64 64 64 64 7 7 7 7 7 91 91 11 11 11 11 39 39 39 39 39
 39 10 10 10 10 10 64 64 7 7 7 7 7 7 91 91 11 11 11 11
 39 39 39 39 39 39 10 10 10 10 10 10 7 7 7 7 7 7 7 86
 86 86 86 11 39 39 39 39 39 39 39 10 10 10 10 10 5 5 5 7
 7 7 7 7 86 86 86 86 86 39 39 39 39 39 39 10 10 10 10 10
 100 5 5 5 5 7 7 7 7 86 86 86 86 86 13 39 39 39 39 39
 100 100 100 100 100 100 5 5 5 5 5 7 7 7 86 86 86 86 86 86
 39 39 39 39 100 100 100 100 100 100 100 5 5 5 5 5 7 7 7 86
 86 86 67 67 67 67 67 67 100 100 100 100 100 100 100 100 5 5 5 5
 5 7 7 67 67 67 67 67 67 67 67 67 67 56 33 100 100 100 100 100
 100 5 5 5 5 5 89 80 67 67 67 67 67 67 67 67 67 56 56 33
 33 100 100 100 100 100 5 5 89 89 89 89 80 80 80 67 67 67 67 67
 67 56 56 56 33 33 100 100 100 100 9 9 89 89 89 89 89 89 80 80
 80 67 67 67 67 67 56 56 56 33 33 33 100 100 100 9 9 89 89 89
 89 89 89 80 80 67 67 67 67 67 67 56 56 56 33 33 33 9 9 9
 9 9 9 89 89 89 89 89 35 35 35 67 67 67 67 67 67 56 56 33
 33 9 9 9 9 9 9 9 89 89 89 89 35 35 35 35 35 35 67 67
 67 67 56 56 9 9 9 9 9 9 9 9 9 9 89 89 89 35 35 35
 35 35 35 67 67 67 67 56 33 9 9 9 9 9 9 9 9 9 9 95
 95 35 35 35 35 35 35 35 35 55 55 55 55 55 9 9 9 9 9 9
 9 9 9 9 9 35 35 35 35 35 35 35 35 55 55 55 55 55 55 9
 9 9 9 9 9 9 9 9 9 9 35 35 35 35 35 35 104 104 104 55
 55 55 34 34 9 9 9 9 9 9 9 9 9 64 64 28 28 28 28 28
 28 28 28 104 34 34 34 34 34 34 9 9 9 9 9 9 64 64 64 64
 64 28 28 28 28 28 28 28 104 34 34 34 34 34 34 34 9 9 9 9
 64 64 64 64 64 64 28 28 28 28 28 28 28 34 34 34 34 34 34 34
 34 9 9 64 64 64 64 64 64 64 64 28 28 28 28 28 28 28 34 34
 34 34 34 34 34 34 34 64 64 64 64 64 64 64 64 64 64 28 28 28
 28 28 28 34 34 34 34 34 34 34 34 34 64 64 64 64 64 64 64 64
 64 36 36 36 28 28 28 11 30 34 34 34 34 34 34 34 34 64 64 64
 64 64 64 64 64 7 7 36 36 68 28 11 11 11 39 39 39 39 39 39
 39 39 64 64 64 64 64 64 64 7 7 7 7 7 68 68 11 11 11 11
 39 39 39 39 39 39 10 10 10 10 10 64 64 7 7 7 7 7 7 68
 68 63 63 63 63 39 39 39 39 39 39 10 10 10 10 10 10 7 7 7
 7 7 7 7 68 86 86 63 63 63 39 39 39 39 39 10 10 10 10 10
 10 19 5 5 7 7 7 7 7 86 86 86 86 63 63 39 39 39 39 39
 10 10 10 10 10 100 5 5 5 5 7 7 7 86 86 86 86 86 86 63
 39 39 39 39 39 100 100 100 100 100 100 5 5 5 5 5 7 7 86 86
 86 86 86 86 86 86 39 39 39 100 100 100 100 100 100 100 5 5 5 5
 5 7 7 86 86 86 86 86 67 67 67 51 51 51 100 100 100 100 100 100
 100 5 5 5 5 5 7 7 67 67 67 67 67 67 67 67 51 51 51 100
 100 100 100 100 100 100 100 5 5 58 58 58 58 67 67 67 67 67 67 67
 67 51 51 51 101 33 100 100 100 100 100 100 58 58 58 58 58 80 80 80
 67 67 67 67 67 67 56 56 56 101 101 100 100 100 100 9 9 27 27 27
 89 27 27 80 80 67 67 67 67 67 67 56 56 56 56 33 33 9 9 9
 9 9 27 27 89 89 89 89 80 80 67 67 67 67 67 67 56 56 56 56
 56 9 9 9 9 9 9 9 89 89 89 89 89 35 35 35 67 67 67 67
 67 67 56 56 56 9 9 9 9 9 9 9 9 27 89 89 89 35 35 14
 35 35 67 67 67 67 67 56 56 9 9 9 9 9 9 9 9 9 9 27
 89 27 35 14 14 35 35 35 67 67 67 67 56 56 9 9 9 9 9 9
 9 9 9 9 27 89 35 35 35 35 35 35 35 67 67 55 55 55 55 9
 9 9 9 9 9 9 9 9 9 9 35 35 35 35 35 35 35 35 55 55
 55 55 34 34 9 9 9 9 9 9 9 9 9 9 9 35 35 28 28 28
 28 28 104 104 55 55 34 34 34 9 9 9 9 9 9 9 9 9 64 64
 28 28 28 28 28 28 28 28 28 34 34 34 34 34 34 9 9 9 9 9
 9 9 64 64 64 28 28 28 28 28 28 28 28 34 34 34 34 34 34 34
 34 9 9 9 9 64 64 64 64 64 64 28 28 28 28 28 28 28 34 34
 34 34 34 34 34 34 9 9 9 64 64 64 64 64 64 64 28 28 28 28
 28 28 28 34 34 34 34 34 34 34 34 34 64 64 64 64 64 64 64 64
 64 36 36 28 28 28 28 28 34 34 34 34 34 34 34 34 34 64 64 64
 64 64 64 64 64 64 36 36 36 28 28 28 28 34 34 34 34 34 34 34
 34 34 64 64 64 64 64 64 64 64 7 36 36 36 68 28 28 11 11 34
 34 34 34 34 34 34 34 64 64 64 64 64 64 64 7 7 7 7 68 68
 68 68 63 63 63 39 39 39 39 39 39 10 10 10 10 10 64 64 7 7