# vtk DataFile Version 2.0
Data set from ImportExport Version 6.5.141.ec284b7a5
ASCII

DATASET RECTILINEAR_GRID
DIMENSIONS 26 26 26
X_COORDINATES 26 float
-3.000000 3.000000 9.000000 15.000000 21.000000 27.000000 33.000000 39.000000 45.000000 51.000000 57.000000 63.000000 69.000000 75.000000 81.000000 87.000000 93.000000 99.000000 105.000000 111.000000 117.000000 
123.000000 129.000000 135.000000 141.000000 147.000000 
Y_COORDINATES 26 float
-3.000000 3.000000 9.000000 15.000000 21.000000 27.000000 33.000000 39.000000 45.000000 51.000000 57.000000 63.000000 69.000000 75.000000 81.000000 87.000000 93.000000 99.000000 105.000000 111.000000 117.000000 
123.000000 129.000000 135.000000 141.000000 147.000000 
Z_COORDINATES 26 float
-3.000000 3.000000 9.000000 15.000000 21.000000 27.000000 33.000000 39.000000 45.000000 51.000000 57.000000 63.000000 69.000000 75.000000 81.000000 87.000000 93.000000 99.000000 105.000000 111.000000 117.000000 
123.000000 129.000000 135.000000 141.000000 147.000000 
CELL_DATA 15625
SCALARS FeatureIds int 1
LOOKUP_TABLE default
 48 48 48 60 58 58 58 58 58 58 58 58 58 44 44 44 44 44 44 44
 47 47 47 47 47 60 60 60 60 60 58 58 58 58 58 58 58 44 44 44
 44 44 44 44 44 47 47 47 47 47 60 60 60 60 60 60 58 58 58 58
 58 58 44 44 44 44 44 44 44 44 47 47 47 47 47 60 60 60 60 60
 60 60 58 58 58 58 86 86 86 86 44 44 44 44 44 44 47 47 47 47
 60 60 60 60 60 60 60 60 60 58 58 86 86 86 86 86 44 44 44 44
 72 72 47 47 60 60 60 60 60 60 60 60 60 60 60 86 86 86 86 86
 86 44 44 44 72 72 72 72 72 60 60 60 60 60 60 60 60 60 60 60
 86 86 86 86 86 86 86 44 72 72 72 72 72 72 60 60 60 60 60 60
 60 23 23 23 23 86 86 86 86 86 86 86 72 72 72 72 72 72 72 72
 60 60 23 23 23 23 23 23 23 23 23 5 5 86 86 86 45 72 72 72
 72 72 72 72 72 39 23 23 23 23 23 23 23 23 23 23 5 5 5 45
 45 45 45 72 72 72 72 72 72 39 39 39 23 23 23 23 23 23 23 23
 23 5 5 45 45 45 45 45 45 72 72 72 72 39 39 39 39 23 23 23
 23 23 23 23 23 31 31 31 45 45 45 45 45 45 45 75 75 75 39 39
 39 39 23 23 23 23 23 23 23 23 31 31 31 75 75 75 75 75 75 75
 75 75 75 39 39 39 39 23 23 23 23 23 9 9 31 31 31 31 31 75
 75 75 75 75 75 75 75 75 39 39 39 39 23 23 23 23 9 9 9 31
 31 31 31 31 75 75 75 75 75 75 75 75 75 75 39 42 42 23 23 23
 23 9 9 9 31 31 31 31 31 75 75 75 75 75 75 75 75 75 75 75
 42 42 42 42 42 42 9 9 31 31 31 31 31 31 75 75 75 75 75 75
 75 75 75 75 42 42 42 42 42 42 42 42 42 31 31 31 31 31 31 75
 75 75 75 75 75 75 75 75 42 42 42 42 42 42 42 42 42 42 6 6
 31 31 31 31 75 75 75 75 75 75 75 75 42 42 42 42 42 42 42 42
 42 42 6 6 6 6 6 69 69 69 75 75 75 75 75 75 75 42 42 42
 42 42 42 42 42 42 42 6 6 6 6 6 6 69 69 75 75 75 75 75
 75 42 42 42 42 42 42 42 42 42 42 42 6 6 6 6 6 6 6 69
 4 4 4 4 75 75 42 42 42 42 42 42 42 42 42 42 42 6 6 6
 6 6 6 6 6 4 4 4 4 53 47 42 42 42 42 42 42 42 42 42
 42 42 6 6 6 6 6 6 6 6 6 4 4 53 47 47 47 42 42 42
 42 42 42 42 42 42 58 58 58 6 6 6 6 6 6 38 38 47 47 47
 47 47 47 47 42 48 48 48 60 60 58 58 58 58 58 58 58 58 44 44
 44 44 44 44 47 47 47 47 47 47 60 60 60 60 60 60 60 58 58 58
 58 58 78 44 44 44 44 44 44 44 47 47 47 47 47 60 60 60 60 60
 60 60 60 58 58 58 78 78 44 44 44 44 44 44 44 47 47 47 47 47
 60 60 60 60 60 60 60 60 60 58 58 78 78 86 44 44 44 44 44 44
 47 47 47 47 47 60 60 60 60 60 60 60 60 60 60 60 86 86 86 44
 44 44 44 44 44 44 47 47 47 60 60 60 60 60 60 60 60 60 60 60
 60 86 86 86 86 44 44 44 44 44 44 72 72 60 60 60 60 60 60 60
 60 60 60 60 60 86 86 86 86 86 44 44 44 44 72 72 72 72 60 60
 60 60 60 60 60 60 60 60 60 60 5 5 5 5 86 86 86 72 72 72
 72 72 72 72 60 60 60 60 60 23 23 23 23 23 23 5 5 5 5 5
 45 45 45 45 72 72 72 72 93 39 39 39 23 23 23 23 23 23 23 23
 5 5 5 5 45 45 45 45 45 45 72 72 72 39 39 39 39 39 23 23
 23 23 23 23 23 5 5 5 5 45 45 45 45 45 45 45 72 39 39 39
 39 39 39 23 23 23 23 23 23 23 31 31 31 5 45 45 45 45 45 45
 45 45 39 39 39 39 39 39 23 23 23 23 23 23 31 31 31 31 31 75
 75 45 45 45 75 75 75 75 39 39 39 39 23 23 23 23 23 9 9 31
 31 31 31 31 75 75 75 75 75 75 75 75 75 39 39 39 39 23 23 23
 23 9 9 9 31 31 31 31 31 75 75 75 75 75 75 75 75 75 75 39
 83 83 23 23 23 23 9 9 9 31 31 31 31 31 75 75 75 75 75 75
 75 75 75 75 83 42 42 42 42 42 42 9 9 31 31 31 31 31 31 75
 75 75 75 75 75 75 75 75 75 42 42 42 42 42 42 42 42 31 31 31
 31 31 31 31 75 75 75 75 75 75 75 75 75 42 42 42 42 42 42 42
 42 42 42 31 31 31 31 31 31 75 75 75 75 75 75 75 75 75 42 42
 42 42 42 42 42 42 42 42 6 6 6 31 69 69 69 75 75 75 75 75
 75 75 42 42 42 42 42 42 42 42 42 42 42 6 6 6 6 69 69 69
 75 75 75 75 75 75 42 42 42 42 42 42 42 42 42 42 42 42 6 6
 6 6 6 69 69 4 4 4 4 75 53 42 42 42 42 42 42 42 42 42
 42 42 42 6 6 6 6 6 6 69 4 4 4 4 53 47 47 42 42 42
 42 42 42 42 48 48 42 6 6 6 6 6 6 6 38 38 4 4 53 47
 47 47 47 42 42 42 42 42 48 48 48 58 58 58 6 6 6 6 38 38
 38 38 47 47 47 47 47 47 47 42 48 48 48 48 48 60 60 60 58 58
 58 58 78 78 44 44 44 44 44 47 47 47 47 47 47 60 60 60 60 60
 60 60 60 60 58 58 78 78 78 44 44 44 44 44 47 47 47 47 47 47
 60 60 60 60 60 60 60 60 60 58 78 78 78 78 78 44 44 44 44 47
 47 47 47 47 47 60 60 60 60 60 60 60 60 60 60 78 78 78 78 78
 44 44 44 44 44 47 47 47 47 47 60 60 60 60 60 60 60 60 60 60
 78 78 78 78 44 44 44 44 44 44 47 47 47 47 60 60 60 60 60 60
 60 60 60 60 60 78 78 78 86 61 61 44 44 44 44 47 47 47 60 60
 60 60 60 60 60 60 60 60 60 60 5 5 5 86 61 61 44 44 44 44
 72 93 93 60 60 60 60 60 60 60 60 60 60 60 60 5 5 5 5 5
 61 44 44 44 72 72 93 93 93 60 60 60 60 60 60 23 23 23 23 23
 5 5 5 5 5 45 45 45 45 45 45 93 93 93 93 39 39 39 23 23
 23 23 23 23 23 5 5 5 5 5 45 45 45 45 45 45 45 93 93 39
 39 39 39 23 23 23 23 23 23 23 5 5 5 5 45 45 45 45 45 45
 45 45 39 39 39 39 39 39 23 23 23 23 23 23 23 31 5 5 5 45
 45 45 45 45 45 45 45 39 39 39 39 39 39 23 23 23 23 23 23 31
 31 31 31 31 75 45 45 45 45 45 45 45 75 39 39 39 39 39 23 23
 23 23 23 31 31 31 31 31 31 75 75 75 75 75 75 75 75 75 39 39
 39 39 39 23 23 23 9 9 9 31 31 31 31 31 75 75 75 75 75 75
 75 75 75 39 39 83 83 83 83 23 23 9 9 31 31 31 31 31 31 75
 75 75 75 75 75 75 75 75 83 83 83 83 83 83 42 42 9 9 31 31
 31 31 31 31 75 75 75 75 75 75 75 75 75 83 83 42 42 42 42 42
 42 42 31 31 31 31 31 31 31 75 75 75 75 75 75 75 75 75 42 42
 42 42 42 42 42 42 42 42 31 31 31 31 31 31 75 75 75 75 75 75
 75 75 42 42 42 42 42 42 42 42 42 42 42 31 31 31 31 69 69 69
 75 75 75 75 75 75 75 42 42 42 42 42 42 42 42 42 42 42 6 6
 6 31 69 69 69 75 75 75 75 53 53 53 42 42 42 42 42 42 42 42
 48 42 42 6 6 6 6 6 69 69 4 4 4 53 53 53 53 42 42 42
 42 42 42 48 48 48 48 48 6 6 6 6 6 57 38 38 4 4 53 53
 53 47 42 42 42 42 42 48 48 48 48 48 48 6 6 6 6 6 57 38
 38 38 53 53 47 47 47 47 42 42 42 42 48 48 48 48 48 48 58 6
 6 6 38 38 38 38 38 47 47 47 47 47 47 47 47 48 48 48 48 48
 60 60 60 60 58 58 38 38 38 38 38 44 44 47 47 47 47 47 47 47
 60 60 60 60 60 60 60 60 60 60 78 78 78 78 78 44 44 44 44 47
 47 47 47 47 47 60 60 60 60 60 60 60 60 60 60 78 78 78 78 78
 44 44 44 44 47 47 47 47 47 47 60 60 60 60 60 60 60 60 60 60
 78 78 78 78 78 44 44 44 44 47 47 47 47 47 60 60 60 60 60 60
 60 60 60 60 60 60 78 78 78 61 61 44 44 44 44 47 47 47 47 60
 60 60 60 60 60 60 60 60 60 60 60 78 78 78 61 61 61 44 44 44
 47 47 93 93 60 60 60 60 60 60 60 60 60 60 60 5 5 5 5 61
 61 61 44 44 44 93 93 93 93 93 60 60 60 60 60 60 60 8 8 5
 5 5 5 5 5 5 61 45 45 18 93 93 93 93 93 60 60 60 60 60
 60 60 23 8 5 5 5 5 5 5 5 45 45 45 45 18 93 93 93 93
 39 39 39 60 23 23 23 23 23 5 5 5 5 5 5 45 45 45 45 45
 45 93 93 93 39 39 39 39 39 23 23 23 23 23 5 5 5 5 5 5
 45 45 45 45 45 45 45 93 39 39 39 39 39 39 23 23 23 23 23 23
 5 5 5 5 5 45 45 45 45 45 45 45 45 39 39 39 39 39 23 23
 23 23 23 23 31 31 31 31 5 5 45 45 45 45 45 45 45 45 39 39
 39 39 39 23 23 23 23 23 31 31 31 31 31 31 75 75 45 45 45 45
 75 75 75 39 39 83 83 83 83 23 23 23 23 31 31 31 31 31 31 75
 75 75 75 75 75 75 75 75 83 83 83 83 83 83 23 23 9 9 31 31
 31 31 31 31 75 75 75 75 75 75 75 75 75 83 83 83 83 83 83 83
 23 9 31 31 31 31 31 31 31 75 75 75 75 75 75 75 75 75 83 83
 83 83 83 42 42 42 42 31 31 31 31 31 31 31 75 75 75 75 75 75
 75 75 75 83 83 42 42 42 42 42 42 42 31 31 31 31 31 31 31 75
 75 75 75 75 75 75 75 42 42 42 42 42 42 42 42 42 42 42 31 31
 31 31 31 31 75 75 75 75 75 53 53 53 42 42 42 42 42 42 42 42
 42 42 42 35 35 35 31 31 31 75 75 53 53 53 53 53 53 42 42 42
 42 42 42 48 48 48 48 48 35 35 35 35 35 57 53 53 53 53 53 53
 53 53 42 42 42 42 42 48 48 48 48 48 48 35 35 35 35 57 57 38
 38 53 53 53 53 53 53 47 42 42 42 42 48 48 48 48 48 48 48 35
 35 57 57 57 38 38 38 53 53 53 47 47 47 47 42 42 48 48 48 48
 48 48 48 48 35 6 38 38 38 38 38 38 38 53 47 47 47 47 47 47
 60 60 60 60 76 76 76 76 76 76 38 38 38 38 38 38 38 38 47 47
 47 47 47 47 47 60 60 60 60 60 60 76 76 76 76 38 38 38 38 38
 38 38 38 47 47 47 47 47 47 47 60 60 60 60 60 60 60 60 60 60
 20 20 78 78 78 38 38 44 47 47 47 47 47 47 47 60 60 60 60 60
 60 60 60 60 60 60 78 78 78 78 44 44 44 44 47 47 47 47 47 60
 60 60 60 60 60 60 60 60 60 60 20 20 78 78 61 61 61 44 44 44
 47 47 47 47 60 60 60 60 60 60 60 60 60 60 60 5 5 5 5 61
 61 61 44 44 44 47 93 93 93 93 60 60 60 60 60 60 60 8 8 8
 5 5 5 5 5 61 61 18 18 18 93 93 93 93 93 93 60 60 60 60
 60 8 8 8 5 5 5 5 5 5 5 18 18 18 18 18 93 93 93 93
 93 60 60 60 60 24 8 8 8 5 5 5 5 5 5 5 18 18 18 18
 18 93 93 93 93 39 39 39 60 24 24 24 23 8 5 5 5 5 5 5
 5 45 45 18 18 18 93 93 93 93 39 39 39 39 23 24 23 23 23 5
 5 5 5 5 5 5 45 45 45 45 18 18 93 93 39 39 39 39 39 23
 23 23 23 23 5 5 5 5 5 5 45 45 45 45 45 45 45 93 39 39
 39 39 39 39 23 23 23 23 23 31 31 31 5 5 5 45 45 45 45 45
 45 45 45 39 39 83 83 83 83 23 23 23 23 31 31 31 31 31 31 5
 45 45 45 45 45 45 45 83 83 83 83 83 83 77 77 23 23 31 31 31
 31 31 31 31 31 75 75 75 75 75 75 75 75 83 83 83 83 83 77 77
 77 77 31 31 31 31 31 31 31 31 75 75 75 75 75 75 75 75 83 83
 83 83 83 83 77 77 77 31 31 31 31 31 31 31 31 75 75 75 75 63
 63 63 75 83 83 83 83 83 83 77 77 91 91 91 31 31 31 31 31 31
 75 75 75 75 63 63 63 25 83 83 42 42 42 42 42 42 42 91 91 91
 31 31 31 31 31 75 75 75 75 63 63 63 25 42 42 42 42 42 42 42
 42 42 91 91 91 31 31 31 31 31 75 75 53 53 53 53 53 53 42 42
 42 42 42 42 42 48 48 48 35 35 35 35 31 31 31 75 53 53 53 53
 53 53 53 42 42 42 42 42 48 48 48 48 48 35 35 35 35 35 57 53
 53 53 53 53 53 53 53 53 42 42 42 42 48 48 48 48 48 48 35 35
 35 35 57 57 38 38 38 53 53 53 53 53 53 42 42 42 42 48 48 48
 48 48 48 35 35 35 57 57 57 38 38 38 38 53 53 53 47 47 47 42
 42 48 48 48 48 48 76 76 76 35 35 38 38 38 38 38 38 38 38 47
 47 47 47 47 47 60 60 60 76 76 76 76 76 76 76 38 38 38 38 38
 38 38 38 38 47 47 47 47 47 47 60 60 60 60 76 76 76 76 76 76
 38 38 38 38 38 38 38 38 38 47 47 47 47 47 47 60 60 60 60 60
 76 76 76 76 76 20 20 20 20 38 38 38 38 38 47 47 47 47 47 47
 60 60 60 60 60 60 60 60 60 60 20 20 20 20 20 38 38 38 38 47
 47 47 47 47 60 60 60 60 60 60 60 60 60 60 60 20 20 20 20 20
 20 38 38 38 47 47 47 47 60 60 60 60 60 60 60 60 60 60 60 60
 5 5 5 5 5 5 61 18 18 18 71 93 93 93 93 60 60 60 60 60
 60 60 8 8 8 5 5 5 5 5 5 18 18 18 18 18 93 93 93 93
 93 60 60 60 60 60 8 8 8 8 5 5 5 5 5 5 18 18 18 18
 18 93 93 93 93 93 60 60 60 24 24 24 8 8 5 5 5 5 5 5
 5 18 18 18 18 18 93 93 93 93 39 39 39 60 24 24 24 8 8 5
 5 5 5 5 5 5 18 18 18 18 18 18 93 93 93 39 39 39 39 24
 24 24 23 5 5 5 5 5 5 5 5 18 18 18 18 18 18 93 93 39
 39 39 39 39 23 23 23 23 5 5 5 5 5 5 5 5 45 45 45 45
 18 18 18 39 39 39 39 39 39 23 23 23 23 5 5 5 5 5 5 5
 5 45 45 45 45 45 45 45 39 39 83 83 83 83 23 23 23 23 31 31
 31 31 31 5 5 5 45 45 45 45 45 45 83 83 83 83 83 83 77 77
 77 23 31 31 31 31 31 31 31 31 75 75 75 75 75 75 75 83 83 83
 83 83 83 77 77 77 77 91 91 31 31 31 31 31 31 75 75 75 75 75
 75 75 83 83 83 83 83 83 77 77 77 91 91 91 91 31 31 31 31 31
 75 75 75 63 63 63 63 25 25 83 83 83 83 83 77 77 91 91 91 91
 91 31 31 31 31 75 75 75 63 63 63 25 25 25 83 83 83 83 42 42
 42 91 91 91 91 91 91 31 31 31 75 75 75 63 63 63 63 25 25 83
 42 42 42 42 42 42 91 91 91 91 91 91 31 31 31 53 53 53 53 53
 53 53 53 25 42 42 42 42 42 42 48 48 91 35 35 35 91 31 57 31
 53 53 53 53 53 53 53 53 42 42 42 42 42 48 48 48 48 48 35 35
 35 35 57 57 38 38 53 53 53 53 53 53 53 42 42 42 42 48 48 48
 48 48 48 35 35 35 35 57 57 38 38 38 53 53 53 53 53 53 42 42
 42 42 48 48 48 48 76 76 35 35 35 57 57 57 38 38 38 38 53 53
 53 53 47 47 42 42 48 48 48 76 76 76 76 76 35 38 38 38 38 38
 38 38 38 38 47 47 47 47 47 47 76 76 76 76 76 76 76 76 76 76
 38 38 38 38 38 38 38 38 38 12 12 47 47 47 47 60 60 76 76 76
 76 76 76 76 76 38 38 38 38 38 38 38 38 12 12 12 47 47 47 47
 60 60 60 60 76 76 76 76 76 76 20 20 20 20 20 38 38 38 38 12
 12 47 47 47 17 60 60 60 60 60 60 76 76 76 76 20 20 20 20 20
 38 38 38 38 38 47 47 47 47 60 60 60 60 60 60 60 60 60 60 60
 20 20 20 20 20 20 38 38 38 71 71 47 93 60 60 60 60 60 60 60
 60 60 60 60 60 20 20 20 20 20 5 38 38 71 71 71 93 93 93 93
 60 60 60 60 60 60 60 8 8 5 5 5 5 5 5 5 18 18 18 71
 71 93 93 93 93 93 60 60 60 60 60 8 8 8 5 5 5 5 5 5
 5 18 18 18 18 18 93 93 93 93 93 60 60 60 60 24 8 8 8 5
 5 5 5 5 5 5 18 18 18 18 18 93 93 93 93 39 39 39 60 24
 24 24 8 8 5 5 5 5 5 5 5 18 18 18 18 18 18 93 93 93
 39 39 39 39 24 24 24 24 5 5 5 5 5 5 5 5 18 18 18 18
 18 18 93 93 39 39 39 39 39 24 23 24 24 5 5 5 5 5 5 5
 5 18 18 18 18 18 18 18 39 39 39 56 39 39 23 23 23 98 5 5
 5 5 5 5 5 5 5 45 18 18 18 18 18 39 39 83 83 83 83 83
 23 98 98 91 31 31 5 5 5 5 5 5 45 45 45 45 45 83 83 83
 83 83 83 77 77 77 91 91 91 91 31 31 31 5 5 5 5 75 75 1
 1 83 83 83 83 83 83 83 77 77 77 91 91 91 91 91 31 31 31 31
 75 75 75 75 63 63 83 83 83 83 83 83 83 77 77 77 91 91 91 91
 91 91 31 31 31 75 75 75 63 63 63 25 25 25 83 56 83 56 56 56
 91 91 91 91 91 91 91 91 31 31 1 75 75 63 63 63 25 25 25 25
 56 56 56 56 56 91 91 91 91 91 91 91 91 91 91 1 1 63 63 63
 63 25 25 25 25 56 56 56 42 42 91 91 91 91 91 91 91 91 91 91
 1 53 53 53 53 53 53 25 25 25 42 42 42 42 42 48 91 91 91 35
 91 91 91 38 38 38 53 53 53 53 53 53 53 25 42 42 42 42 48 48
 48 48 35 35 35 35 35 38 38 38 38 53 53 53 53 53 53 53 53 42
 42 42 48 48 48 48 76 35 35 35 35 38 38 38 38 38 38 38 53 53
 53 53 53 53 42 42 42 76 76 76 76 76 76 35 35 38 38 38 38 38
 38 38 38 53 53 53 53 47 47 42 76 76 76 76 76 76 76 76 76 76
 38 38 38 38 38 38 38 38 38 38 47 47 47 47 47 17 17 76 76 76
 76 76 76 76 76 38 38 38 38 38 38 38 38 12 12 12 12 47 47 17
 17 17 76 76 76 76 76 76 76 76 38 38 38 38 38 38 38 38 12 12
 12 12 47 47 17 17 17 60 76 76 76 76 76 76 76 20 20 20 20 38
 38 38 38 12 12 12 12 47 17 17 17 60 60 60 76 76 76 76 76 76
 20 20 20 20 20 38 38 38 38 38 12 12 47 17 17 60 60 60 60 60
 60 60 76 76 76 20 20 20 20 20 38 38 38 38 71 71 71 93 93 17
 60 60 60 60 60 60 60 60 60 60 20 20 20 20 20 38 38 38 71 71
 71 71 93 93 93 60 60 60 60 60 60 60 60 8 5 5 5 5 5 5
 5 18 18 71 71 71 93 93 93 93 70 70 60 60 60 60 60 8 8 5
 5 5 5 5 5 18 18 18 18 18 18 93 93 93 93 70 70 60 60 60
 60 8 8 8 5 5 5 5 5 5 18 18 18 18 18 18 18 93 93 93
 70 70 60 60 24 24 24 8 5 5 5 5 5 5 5 18 18 18 18 18
 18 18 93 93 93 39 39 39 39 24 24 24 24 5 5 5 5 5 5 5
 5 18 18 18 18 18 18 18 93 93 56 56 56 56 65 65 65 98 5 5
 5 5 5 5 5 5 18 18 18 18 18 18 18 39 56 56 56 56 56 56
 65 65 98 98 5 5 5 5 5 5 5 5 18 18 18 18 18 18 56 56
 56 56 56 56 56 56 98 98 98 5 5 5 5 5 5 5 5 1 1 1
 1 1 56 56 56 56 56 56 56 56 56 91 91 91 91 91 5 5 5 5
 1 1 1 1 1 1 1 56 56 56 56 56 56 56 56 56 91 91 91 91
 91 91 91 31 1 1 1 1 1 1 1 1 56 56 56 56 56 56 56 56
 56 91 91 91 91 91 91 91 31 1 1 1 1 1 1 1 25 25 25 56
 56 56 56 56 56 56 91 91 91 91 91 91 91 91 1 1 1 1 1 1
 1 25 25 25 25 56 56 56 56 56 91 91 91 91 91 91 91 91 91 1
 1 1 1 1 1 53 25 25 25 25 56 56 56 56 56 91 91 91 91 91
 91 91 91 91 1 1 1 1 53 53 53 53 25 25 25 56 56 56 56 2
 2 2 91 91 91 91 91 91 38 38 38 53 53 53 53 53 53 53 25 25
 42 42 42 2 2 2 2 2 35 35 35 38 38 38 38 38 38 53 53 53
 53 53 53 74 74 42 42 76 76 76 76 76 35 35 35 35 38 38 38 38
 38 38 38 53 53 53 53 53 74 74 42 76 76 76 76 76 76 76 35 35
 38 38 38 38 38 38 38 38 38 53 53 53 47 47 47 76 76 76 76 76
 76 76 76 76 76 38 38 38 38 38 38 38 38 38 12 47 47 47 47 47
 17 17 17 76 76 76 76 76 76 76 38 38 38 38 38 38 38 38 80 80
 80 80 80 17 17 17 17 17 76 76 76 76 76 76 76 38 38 38 38 38
 38 38 38 80 80 80 80 80 17 17 17 17 17 76 76 76 76 76 76 76
 38 38 20 38 38 38 38 38 38 80 80 80 80 17 17 17 17 17 17 76
 76 76 76 76 76 20 20 20 20 20 38 38 38 38 38 80 80 17 17 17
 17 17 17 60 60 76 76 76 76 82 20 20 20 20 20 38 38 38 38 71
 71 11 11 17 17 17 17 60 60 60 60 60 82 82 82 5 20 20 20 20
 38 38 38 71 71 71 71 11 93 17 70 70 70 60 60 60 60 82 82 5
 5 5 5 5 5 5 18 18 49 49 49 49 21 21 21 70 70 70 70 60
 60 82 8 82 5 5 5 5 5 5 18 18 18 49 49 49 49 21 21 21
 70 70 70 70 60 22 22 8 5 5 5 5 5 5 5 18 18 18 18 18
 49 18 21 21 21 70 70 70 70 22 65 22 22 5 5 5 5 5 5 5
 18 18 18 18 18 18 18 90 90 90 56 70 56 29 65 65 65 65 5 5
 5 5 5 5 5 5 18 18 18 18 18 18 90 90 90 56 56 56 56 65
 65 65 65 5 5 5 5 5 5 5 5 18 18 18 18 18 18 90 90 56
 56 56 56 56 56 65 65 98 98 5 5 5 5 5 5 5 5 18 18 18
 18 18 90 56 56 56 56 56 56 56 65 65 98 98 98 5 5 5 5 5
 5 1 1 1 1 1 1 56 56 56 56 56 56 56 56 56 56 98 98 91
 91 5 5 5 1 1 1 1 1 1 1 1 56 56 56 56 56 56 56 56
 56 91 91 91 91 91 91 91 1 1 1 1 1 1 1 1 1 56 56 56
 56 56 56 56 56 56 91 91 91 91 91 91 91 1 1 1 1 1 1 1
 1 1 25 25 56 56 56 56 56 56 56 91 91 91 91 91 91 91 1 1
 1 1 1 1 1 1 25 25 25 25 56 56 56 56 56 56 91 91 91 91
 91 91 91 91 1 1 1 1 1 1 1 25 25 25 25 56 56 56 56 56
 2 91 91 91 91 91 91 91 91 1 1 1 1 1 1 53 53 25 25 56
 56 56 56 56 2 2 2 91 91 91 91 91 91 87 87 87 87 1 1 53
 53 53 74 74 56 56 56 56 2 2 2 2 2 91 91 91 38 38 87 87
 87 87 87 53 53 53 53 74 74 74 56 56 2 2 2 2 2 2 95 95
 38 38 38 38 38 38 87 87 66 66 66 66 74 74 74 17 17 76 76 76
 76 76 76 76 95 38 38 38 38 38 38 38 38 66 66 66 66 66 74 74
 17 17 76 76 76 76 76 76 76 76 38 38 38 38 38 38 38 38 38 66
 66 66 47 47 47 17 17 17 76 76 76 76 76 76 76 38 38 38 38 38
 38 38 38 80 80 80 80 80 17 17 17 17 17 76 76 76 76 76 76 76
 38 38 38 38 38 38 38 38 80 80 80 80 80 17 17 17 17 17 17 76
 76 76 76 76 76 38 38 38 38 38 38 38 38 80 80 80 80 80 17 17
 17 17 17 17 76 76 76 76 82 82 38 38 38 38 38 38 38 38 38 38
 80 11 11 17 17 17 17 17 17 17 82 82 82 82 82 82 20 20 38 38
 38 38 38 38 38 11 11 11 17 17 17 17 17 17 17 82 82 82 82 82
 82 5 20 38 38 38 38 38 38 49 11 11 11 11 17 70 70 70 70 82
 82 82 82 82 82 5 5 5 5 5 5 18 18 49 49 49 11 21 21 21
 70 70 70 70 22 82 82 82 82 82 5 5 5 5 5 18 18 18 49 49
 49 49 21 21 21 70 70 70 70 22 22 22 22 82 5 5 5 5 5 5
 18 18 18 18 49 49 49 21 21 21 70 70 70 70 22 22 22 22 5 5
 5 5 5 5 5 18 18 18 18 18 18 18 90 90 90 70 29 29 29 65
 65 65 65 5 5 5 5 5 5 5 5 18 18 18 18 18 18 90 90 90
 56 56 29 29 65 65 65 65 5 5 5 5 5 5 5 5 18 18 18 18
 18 18 90 56 56 56 56 56 56 65 65 65 98 98 5 5 5 5 5 5
 5 1 1 1 1 1 1 56 56 56 56 56 56 56 56 56 65 98 98 98
 5 5 5 5 5 1 1 1 1 1 1 1 56 56 56 56 56 56 56 56
 56 56 91 98 91 91 5 5 5 1 1 1 1 1 1 1 1 56 56 56
 56 56 56 56 56 56 56 91 91 91 91 91 5 1 1 1 1 1 1 1
 1 1 56 56 56 56 56 56 56 56 56 56 91 91 91 91 91 91 1 1
 1 1 1 1 1 1 1 56 56 56 56 56 56 56 56 56 91 91 91 91
 91 91 27 1 1 1 1 1 1 1 1 1 25 56 56 56 56 56 56 56
 56 91 91 91 91 91 91 27 1 1 1 1 1 1 1 1 1 25 56 56
 56 56 56 56 56 2 91 91 91 91 91 91 27 27 1 1 1 1 1 1
 1 81 81 56 56 56 56 56 56 2 2 2 91 91 91 91 91 87 87 87
 87 87 1 1 1 1 81 74 74 74 56 56 56 2 2 2 2 2 95 95
 95 87 87 87 87 87 87 87 87 66 66 53 74 74 74 17 17 2 2 2
 2 2 2 95 95 95 38 87 87 87 87 87 87 66 66 66 66 74 74 74
 17 17 17 76 76 76 76 76 95 95 95 38 38 87 87 87 87 87 66 66
 66 66 88 74 74 17 17 17 76 76 76 76 76 95 95 95 38 38 38 38
 38 38 38 66 66 66 66 88 74 74 17 17 17 17 76 76 51 51 51 95
 95 38 38 38 38 38 38 38 80 80 80 80 80 17 17 17 17 17 17 17
 76 76 51 51 95 38 38 38 38 38 38 38 38 80 80 80 80 80 17 17
 17 17 17 17 17 76 76 82 82 82 38 38 38 38 38 38 38 38 80 80
 80 80 80 17 17 17 17 17 17 17 82 82 82 82 82 82 38 38 38 38
 38 38 38 38 80 11 11 11 17 17 17 17 17 17 17 82 82 82 82 82
 82 38 38 38 38 38 38 38 38 11 11 11 11 17 17 17 17 17 17 82
 82 82 82 82 82 82 82 38 38 38 38 38 38 38 11 11 11 11 11 17
 70 70 70 70 82 82 82 82 82 82 82 5 5 5 38 38 38 38 49 49
 11 11 11 21 21 70 70 70 70 22 22 82 82 82 82 5 5 5 84 5
 5 18 18 49 49 49 11 21 21 21 70 70 70 22 22 22 22 22 82 82
 5 5 84 84 84 18 18 18 49 49 49 11 21 21 90 70 70 29 29 22
 22 22 22 22 5 5 5 84 84 84 5 18 18 18 18 18 18 90 90 90
 70 29 29 29 29 22 22 22 22 5 5 5 5 84 84 5 18 18 18 18
 18 18 90 90 90 56 56 29 29 29 65 65 22 22 5 5 5 5 5 5
 5 1 1 1 1 1 1 19 19 56 56 56 29 29 29 65 65 22 98 5
 5 5 5 5 5 1 1 1 1 1 1 1 56 56 56 56 56 56 56 56
 56 65 98 98 98 5 5 5 5 1 1 1 1 1 1 1 1 1 56 56
 56 56 56 56 56 56 56 91 98 91 36 5 5 1 1 1 1 1 1 1
 1 1 56 56 56 56 56 56 56 56 56 56 91 91 91 91 91 5 1 1
 1 1 1 1 1 1 1 56 56 56 56 56 56 56 56 56 56 91 91 91
 91 27 27 1 1 1 1 1 1 1 1 1 56 56 56 56 56 56 56 56
 56 56 91 91 91 91 27 27 27 1 1 1 1 1 1 1 1 25 56 56
 56 56 56 56 56 56 56 91 91 91 91 27 27 27 1 1 1 1 1 1
 1 81 81 81 56 56 56 56 56 2 2 2 91 91 91 91 27 27 27 1
 1 1 1 1 1 1 81 81 81 81 81 81 56 2 2 2 2 51 95 95
 95 27 87 87 87 87 87 1 1 1 81 81 81 81 81 81 81 56 2 2
 2 2 51 95 95 95 95 87 87 87 87 87 87 87 66 88 81 81 74 81
 81 17 2 2 2 2 2 51 95 95 95 95 87 87 87 87 87 87 87 66
 88 88 88 74 81 17 17 17 51 51 51 51 95 95 95 95 95 87 87 87
 87 87 87 66 66 66 88 88 88 81 17 17 17 17 51 51 76 95 95 95
 95 38 38 87 87 87 87 87 87 66 80 88 88 88 88 17 17 17 17 51
 51 51 51 51 95 95 38 38 38 87 87 87 87 87 80 80 88 88 17 17
 17 17 17 17 17 51 51 51 51 51 38 38 38 38 38 38 38 38 80 80
 80 80 88 17 17 17 17 17 17 17 82 82 82 82 82 38 38 38 38 38
 38 38 38 38 80 80 80 17 17 17 17 17 17 17 17 82 82 82 82 82
 82 38 38 38 38 38 38 38 38 80 11 11 11 17 17 17 17 17 17 82
 82 82 82 82 82 82 82 38 38 38 38 38 38 38 11 11 11 11 11 17
 17 17 17 17 82 82 82 82 82 82 82 82 38 38 38 38 38 38 38 11
 11 11 11 11 17 17 17 17 82 82 82 82 82 82 82 82 82 84 30 30
 30 30 30 49 11 11 11 11 11 21 70 70 70 22 22 22 82 82 82 82
 82 82 84 84 30 30 30 18 49 11 11 11 11 11 21 70 70 70 22 22
 22 22 22 82 82 82 84 84 84 84 30 30 18 18 49 49 11 21 19 19
 70 70 29 29 22 22 22 22 22 82 82 84 84 84 84 84 18 18 18 18
 18 19 19 19 19 19 29 29 29 29 22 22 22 22 36 5 5 84 84 84
 84 18 1 1 1 1 19 19 19 19 19 29 29 29 29 22 22 22 36 36
 5 5 5 5 1 1 1 1 1 1 1 19 19 19 19 56 56 29 29 29
 22 22 22 36 36 36 36 5 5 1 1 1 1 1 1 1 1 19 19 19
 56 56 56 29 29 22 22 22 36 36 36 36 36 1 1 1 1 1 1 1
 1 1 19 19 56 56 56 56 56 56 56 56 36 36 36 36 36 36 1 1
 1 1 1 1 1 1 1 97 56 56 56 56 56 56 56 56 56 91 36 36
 36 36 36 1 1 1 1 1 1 1 1 1 97 97 56 56 56 56 56 56
 56 56 79 79 91 27 27 27 1 1 1 1 1 1 1 1 1 97 97 97
 56 56 56 56 56 56 79 79 79 79 27 27 27 27 1 1 1 1 1 1
 1 81 97 97 97 81 56 56 56 56 56 79 79 79 79 27 27 27 27 1
 1 1 1 1 1 1 81 81 81 81 81 81 56 56 56 51 51 51 79 79
 79 27 27 27 1 1 1 1 1 1 81 81 81 81 81 81 81 81 51 51
 51 51 51 51 79 79 79 87 87 87 87 87 1 1 1 81 81 81 81 81
 81 81 81 51 51 51 51 51 51 95 95 95 87 87 87 87 87 87 87 88
 88 88 81 81 81 81 81 51 51 51 51 51 51 95 95 95 95 87 87 87
 87 87 87 87 88 88 88 88 88 81 17 17 17 51 51 51 51 51 95 95
 95 95 87 87 87 87 87 87 87 88 88 88 88 88 81 17 17 17 17 51
 51 51 95 95 95 95 95 87 87 87 87 87 87 87 87 88 88 88 88 88
 17 17 17 17 51 51 51 51 51 51 51 38 38 87 87 87 87 87 87 88
 88 88 88 88 17 17 17 17 17 17 51 51 51 51 51 51 38 38 38 38
 38 87 87 87 80 88 88 88 17 17 17 17 17 17 17 82 82 82 82 82
 82 38 38 38 38 38 38 38 38 80 80 88 17 17 17 17 17 17 17 82
 82 82 82 82 82 82 38 38 38 38 38 38 38 38 11 11 11 11 17 17
 17 17 17 17 82 82 82 82 82 82 82 82 38 38 38 38 38 38 38 11
 11 11 11 17 17 17 17 17 82 82 82 82 82 82 82 82 82 38 38 30
 30 30 38 11 11 11 11 11 11 17 17 17 17 82 82 82 82 82 82 82
 82 82 82 30 30 30 30 30 11 11 11 11 11 11 17 70 70 22 22 22
 22 82 82 82 82 82 82 84 30 30 30 30 30 30 11 11 11 46 46 19
 70 70 22 22 22 22 22 22 82 82 82 84 84 84 30 30 30 30 54 54
 54 46 46 19 19 19 29 29 22 22 22 22 22 22 82 82 84 84 84 84
 30 30 30 54 54 54 19 19 19 19 19 29 29 29 22 22 22 22 22 36
 36 36 84 84 84 84 1 1 1 54 54 19 19 19 19 19 29 29 29 29
 22 22 22 36 36 36 36 36 36 84 1 1 1 1 1 1 19 19 19 19
 19 56 29 29 29 22 22 22 36 36 36 36 36 36 1 1 1 1 1 1
 1 19 19 19 19 56 56 56 29 29 22 22 22 36 36 36 36 36 36 1
 1 1 1 1 1 1 1 19 19 19 56 56 56 56 56 22 22 36 36 36
 36 36 36 36 1 1 1 1 1 1 1 1 97 97 56 56 56 56 56 56
 56 56 36 36 36 36 36 36 1 1 1 1 1 1 1 1 1 97 97 97
 7 7 7 56 56 56 79 79 79 79 79 36 36 1 1 1 1 1 1 1
 1 97 97 97 97 7 7 7 7 56 56 79 79 79 79 79 27 27 27 1
 1 1 1 1 1 1 81 97 97 97 81 7 7 7 56 79 79 79 79 79
 79 27 27 27 1 1 1 1 1 1 81 81 81 81 81 81 81 7 7 51
 51 51 79 79 79 79 79 27 27 1 1 1 1 1 1 81 81 81 81 81
 81 81 7 51 51 51 51 51 51 79 79 79 87 87 87 87 87 1 1 1
 81 81 81 81 81 81 81 81 51 51 51 51 51 51 51 51 79 87 87 87
 87 87 87 87 88 88 88 81 81 81 81 81 51 51 51 51 51 51 51 95
 95 95 87 87 87 87 87 87 87 88 88 88 88 59 59 81 17 51 51 51
 51 51 51 51 95 95 95 87 87 87 87 87 87 87 88 88 88 88 59 59
 17 17 17 51 51 51 51 51 51 95 95 95 87 87 87 87 87 87 87 88
 88 88 88 59 59 17 17 17 17 51 51 51 51 51 51 51 38 38 87 87
 87 87 87 87 88 88 88 88 88 17 17 17 17 17 51 51 51 51 51 51
 51 38 38 38 38 87 87 87 87 88 88 88 88 88 17 17 17 17 17 82
 82 82 82 82 82 82 38 38 38 38 38 38 38 3 88 88 88 88 17 17
 17 17 17 17 82 82 82 82 82 82 82 82 38 38 38 55 55 38 38 11
 11 11 11 17 17 17 17 17 17 82 82 82 82 82 82 82 82 38 55 55
 55 55 55 55 11 11 11 11 17 17 17 17 17 82 82 82 82 82 82 82
 82 82 82 55 55 55 55 55 55 11 11 11 11 11 17 17 17 17 82 82
 82 82 82 82 82 82 82 82 30 30 30 30 30 55 11 11 46 46 46 46
 70 70 22 22 22 22 82 82 82 82 82 82 84 30 30 30 30 30 30 54
 11 46 46 46 46 19 22 22 22 22 22 22 22 82 82 82 33 84 30 30
 30 30 30 54 54 54 46 46 46 19 19 19 22 22 22 22 22 22 22 33
 33 33 84 84 30 30 30 30 54 54 54 19 19 19 19 19 29 29 22 22
 22 22 22 22 36 36 36 36 84 84 84 1 1 54 54 54 19 19 19 19
 19 19 29 29 22 22 22 22 36 36 36 36 36 36 36 1 1 1 1 1
 19 19 19 19 19 19 19 29 29 22 22 22 22 36 36 36 36 36 36 36
 1 1 1 1 1 1 19 19 19 19 19 56 56 29 22 22 22 22 36 36
 36 36 36 36 36 1 1 1 1 1 1 19 19 19 19 56 56 56 14 14
 22 22 36 36 36 36 36 36 36 1 1 1 1 1 1 1 1 97 97 19
 97 7 7 14 14 14 22 36 36 36 36 36 36 36 1 1 1 1 1 1
 1 97 97 97 97 7 7 7 7 7 79 79 79 79 79 36 36 36 36 1
 1 1 1 1 1 1 97 97 97 97 7 7 7 7 7 79 79 79 79 79
 79 79 27 1 1 1 1 1 1 1 1 97 97 97 97 7 7 7 7 7
 79 79 79 79 79 79 79 79 1 1 1 1 1 1 1 81 81 81 81 81
 81 81 7 7 51 51 51 79 79 79 79 79 79 27 1 1 1 1 1 1
 81 81 81 81 81 81 81 7 51 51 51 51 51 79 79 79 79 79 87 87
 87 87 87 1 1 81 81 81 81 81 81 81 81 13 51 51 51 51 51 51
 51 79 87 87 87 87 87 87 87 88 88 88 81 81 81 81 81 13 13 51
 51 51 51 51 51 51 51 87 87 87 87 87 87 87 88 88 88 88 59 59
 59 59 13 13 13 51 51 51 51 51 51 51 87 87 87 87 87 87 87 88
 88 88 88 59 59 17 17 17 13 13 51 51 51 51 51 51 51 87 87 87
 87 87 87 87 88 88 88 88 59 59 17 17 17 13 13 13 51 51 51 51
 51 51 38 87 87 87 87 87 3 88 88 88 88 88 88 17 17 17 17 51
 51 51 51 51 51 51 51 38 38 38 87 87 3 3 88 88 88 88 88 17
 17 17 17 17 82 82 82 82 82 82 82 82 38 38 38 38 55 3 3 3
 88 88 88 88 17 17 17 17 96 82 82 82 82 82 82 82 82 38 55 55
 55 55 55 3 3 11 11 11 17 17 17 17 96 96 82 82 82 82 82 82
 82 82 82 55 55 55 55 55 55 11 11 11 11 46 17 17 96 96 96 96
 82 82 82 82 82 82 82 82 55 55 55 55 55 55 11 46 46 46 46 46
 17 96 96 96 96 82 82 82 82 82 82 82 82 55 55 55 55 30 55 11
 46 46 46 46 46 26 26 26 22 22 22 82 82 82 82 82 33 33 30 30
 30 30 30 30 46 46 46 46 46 46 19 26 26 22 22 22 22 22 82 82
 33 33 33 30 30 30 30 30 54 54 46 46 46 46 19 19 19 22 22 22
 22 22 22 22 33 33 33 33 30 30 30 30 30 54 54 54 19 19 19 19
 19 19 22 22 22 22 22 22 22 36 33 33 36 36 85 85 85 1 54 54
 54 19 19 19 19 19 19 22 22 22 22 22 22 36 36 36 36 36 36 36
 1 1 1 1 1 19 19 19 19 19 19 14 14 22 22 22 22 22 36 36
 36 36 36 36 36 1 1 1 1 1 1 19 19 19 19 14 14 14 14 14
 22 22 36 36 36 36 36 36 36 36 1 1 1 1 1 1 19 19 19 19
 14 14 14 14 14 14 36 36 36 36 36 36 36 36 36 1 1 1 1 1
 1 1 97 97 14 14 14 14 14 14 14 36 36 36 36 36 36 36 36 36
 1 1 1 1 1 1 97 97 97 97 7 7 7 14 14 14 79 79 79 79
 36 36 36 36 1 1 1 1 1 1 1 97 97 97 97 7 7 7 14 14
 79 79 79 79 79 79 79 36 36 1 1 1 1 1 1 81 97 97 97 97
 81 7 7 7 7 79 79 79 79 79 79 79 79 79 1 1 1 1 1 1
 81 81 81 81 81 81 81 7 7 51 79 79 79 79 79 79 79 79 79 73
 1 1 1 1 1 81 81 81 81 81 81 81 81 51 51 51 51 51 79 79
 79 79 79 79 87 87 87 1 1 81 81 81 81 81 81 81 81 13 13 13
 51 51 51 51 51 79 79 79 87 87 87 87 87 68 88 88 88 81 81 81
 81 81 13 13 13 13 51 51 51 51 51 51 87 87 87 87 87 68 68 88
 88 88 88 59 59 59 13 13 13 13 13 51 51 51 51 51 51 87 87 87
 87 68 68 68 88 88 88 88 59 59 17 13 13 13 13 13 51 51 51 51
 51 51 87 87 87 87 87 68 68 88 88 88 88 59 59 15 15 15 13 13
 13 13 51 51 51 51 51 51 87 87 87 3 3 3 3 88 88 88 88 88
 15 15 15 15 13 13 51 51 51 51 51 51 51 62 62 3 3 3 3 3
 3 88 88 88 15 15 15 15 15 82 82 82 82 82 82 82 82 55 55 55
 3 3 3 3 3 3 3 88 88 15 15 15 15 96 82 82 82 82 82 82
 82 82 55 55 55 55 55 3 3 3 3 3 46 46 15 15 96 96 96 96
 82 82 82 82 82 82 82 82 55 55 55 55 55 3 3 3 46 46 46 15
 96 96 96 96 96 82 82 82 82 82 82 82 82 55 55 55 55 55 55 11
 46 46 46 46 46 96 96 96 96 96 82 82 82 82 82 82 82 82 55 55
 55 55 55 55 46 46 46 46 46 46 26 26 26 26 26 26 82 82 82 82
 82 33 33 55 55 55 55 55 55 46 46 46 46 46 46 26 26 26 26 22
 22 22 82 82 82 33 33 33 85 85 85 85 85 85 85 46 46 46 46 19
 19 26 26 26 22 22 22 22 22 33 33 33 33 85 85 85 85 85 85 54
 54 19 19 19 19 19 26 26 22 22 22 22 22 36 36 33 33 33 36 85
 85 85 85 54 54 19 19 19 19 19 19 14 26 22 22 22 22 22 36 36
 36 36 36 36 36 85 85 85 1 1 19 19 19 19 19 14 14 14 14 22
 22 22 36 36 36 36 36 36 36 36 36 1 1 1 1 1 19 19 19 19
 14 14 14 14 14 14 22 36 36 36 36 36 36 36 36 36 1 1 1 1
 1 19 19 19 14 14 14 14 14 14 14 14 36 36 36 36 36 36 36 36
 36 1 1 1 1 1 97 97 14 14 14 14 14 14 14 14 14 36 36 36
 36 36 36 36 36 1 1 1 1 1 1 97 97 14 14 14 14 14 14 14
 14 79 79 79 79 36 36 36 36 36 1 1 1 1 1 1 97 97 97 14
 14 14 14 14 14 14 79 79 79 79 79 79 36 36 1 1 1 1 1 99
 99 97 97 97 97 81 14 14 14 14 79 79 79 79 79 79 79 79 73 73
 73 73 1 99 99 81 81 81 81 81 81 81 14 14 13 79 79 79 79 79
 79 79 79 73 73 73 73 1 99 99 81 81 81 81 81 81 81 81 13 13
 51 51 51 79 79 79 79 79 73 73 73 73 68 68 81 81 81 81 81 81
 81 81 13 13 13 13 51 51 51 51 79 79 79 73 73 87 68 68 68 88