# vtk DataFile Version 2.0
Data set from ImportExport Version 6.5.141.ec284b7a5
ASCII

DATASET RECTILINEAR_GRID
DIMENSIONS 26 26 26
X_COORDINATES 26 float
-3.000000 3.000000 9.000000 15.000000 21.000000 27.000000 33.000000 39.000000 45.000000 51.000000 57.000000 63.000000 69.000000 75.000000 81.000000 87.000000 93.000000 99.000000 105.000000 111.000000 117.000000 
123.000000 129.000000 135.000000 141.000000 147.000000 
Y_COORDINATES 26 float
-3.000000 3.000000 9.000000 15.000000 21.000000 27.000000 33.000000 39.000000 45.000000 51.000000 57.000000 63.000000 69.000000 75.000000 81.000000 87.000000 93.000000 99.000000 105.000000 111.000000 117.000000 
123.000000 129.000000 135.000000 141.000000 147.000000 
Z_COORDINATES 26 float
-3.000000 3.000000 9.000000 15.000000 21.000000 27.000000 33.000000 39.000000 45.000000 51.000000 57.000000 63.000000 69.000000 75.000000 81.000000 87.000000 93.000000 99.000000 105.000000 111.000000 117.000000 
123.000000 129.000000 135.000000 141.000000 147.000000 
CELL_DATA 15625
SCALARS FeatureIds int 1
LOOKUP_TABLE default
 98 98 98 50 50 50 50 50 27 7 7 63 63 63 63 63 63 33 33 33
 33 33 33 98 98 98 98 98 98 98 98 98 98 27 7 7 63 63 63 63
 63 63 63 33 33 33 33 33 98 98 98 98 98 98 98 98 98 27 27 7
 7 63 63 63 63 63 63 37 37 37 33 33 98 98 98 98 98 98 98 98
 98 27 27 27 27 7 63 63 63 63 63 37 37 37 37 37 98 98 98 98
 98 98 98 98 98 27 27 27 27 27 63 63 63 63 37 37 37 37 37 37
 37 37 98 98 98 98 98 98 98 98 27 27 27 27 27 27 63 37 37 37
 37 37 37 37 37 37 37 98 98 98 98 98 98 98 27 27 27 27 27 27
 27 37 37 37 37 37 37 37 37 37 37 37 98 98 98 98 98 98 98 27
 27 27 27 27 27 27 37 37 37 37 37 37 37 37 37 37 37 98 98 98
 98 98 98 98 27 27 27 27 43 43 43 77 37 37 37 37 37 37 37 37
 37 18 18 18 98 76 76 76 76 27 27 43 43 43 43 43 77 77 37 37
 37 37 37 37 37 18 18 18 18 76 76 76 76 76 76 27 43 43 43 43
 43 77 77 37 37 37 37 37 37 18 18 18 18 18 76 76 76 76 76 76
 76 43 43 43 43 43 43 43 43 37 37 37 37 18 18 18 18 18 18 76
 76 76 76 76 4 4 48 48 43 43 43 43 43 43 46 46 46 46 18 18
 18 18 18 18 76 76 76 76 76 4 4 48 48 48 43 43 43 43 43 46
 46 46 46 46 11 18 18 18 76 76 76 76 76 4 4 4 48 48 48 43
 43 43 43 46 46 46 46 46 46 46 18 18 18 4 4 4 4 4 4 4
 4 4 20 20 20 20 20 20 62 46 46 46 46 46 46 46 11 4 4 4
 4 4 4 4 4 4 20 20 20 20 20 20 62 62 62 62 46 46 46 46
 46 11 4 4 4 4 4 4 4 4 4 20 20 20 20 20 20 62 62 62
 62 62 46 46 46 46 4 4 4 4 4 4 4 4 4 4 20 20 20 20
 20 20 62 62 62 62 62 62 46 46 33 33 4 4 4 4 4 4 4 4
 2 2 2 2 2 2 2 62 62 62 62 62 62 62 33 33 33 33 4 4
 4 50 50 50 50 2 2 2 2 2 2 2 62 62 62 62 62 62 33 33
 33 33 33 49 49 50 50 50 50 50 2 2 2 2 2 2 2 2 62 62
 62 62 33 33 33 33 33 33 33 49 50 50 50 50 50 50 2 2 2 2
 2 2 2 62 62 62 33 33 33 33 33 33 33 33 49 50 50 50 50 50
 50 2 2 2 2 2 2 2 62 62 62 33 33 33 33 33 33 33 33 49
 50 50 50 50 50 50 50 2 2 2 2 2 2 62 62 33 33 33 33 33
 33 33 33 33 33 98 98 98 98 98 98 98 98 27 7 7 7 63 63 63
 63 33 33 33 33 33 33 33 98 98 98 98 98 98 98 98 98 98 27 7
 7 7 63 63 63 63 63 33 33 33 33 33 98 98 98 98 98 98 98 98
 98 98 27 27 7 7 7 63 63 63 37 37 37 37 37 33 33 98 98 98
 98 98 98 98 98 98 27 27 27 27 7 7 37 37 37 37 37 37 37 37
 37 98 98 98 98 98 98 98 98 98 27 27 27 27 27 7 7 37 37 37
 37 37 37 37 37 37 98 98 98 98 98 98 98 98 98 27 27 27 27 27
 7 7 37 37 37 37 37 37 37 37 37 37 98 98 98 98 98 98 98 27
 27 27 27 27 27 27 7 37 37 37 37 37 37 37 37 37 37 98 98 98
 98 98 98 98 27 27 27 27 27 27 27 37 37 37 37 37 37 37 37 37
 37 37 98 98 98 98 98 98 98 27 27 27 27 43 43 43 43 37 37 37
 37 37 37 37 37 37 37 18 98 98 76 76 76 76 27 27 27 43 43 43
 43 43 37 37 37 37 37 37 37 37 18 18 18 18 76 76 76 76 76 76
 43 43 43 43 43 43 43 43 37 37 37 37 37 37 18 18 18 18 76 76
 76 76 76 76 76 76 43 43 43 43 43 43 43 43 37 37 11 11 11 11
 18 18 18 76 76 76 76 76 76 76 4 48 48 43 43 43 43 43 43 46
 46 11 11 11 11 11 18 18 76 76 76 76 76 76 76 4 48 48 48 43
 43 43 43 43 46 46 11 11 11 11 11 11 18 76 76 76 76 76 76 4
 4 48 48 48 43 43 43 43 43 46 46 11 11 11 11 11 11 11 76 76
 76 76 76 4 4 4 48 20 20 20 41 41 41 62 46 46 46 11 11 11
 11 11 11 4 4 4 4 4 4 4 4 20 20 20 20 20 20 62 62 62
 62 62 11 11 11 11 11 4 4 4 4 4 4 4 4 4 20 20 20 20
 20 20 62 62 62 62 62 46 46 11 11 11 4 4 4 4 4 4 4 4
 20 20 20 20 20 20 20 62 62 62 62 62 62 46 11 11 11 49 4 4
 4 4 4 4 2 2 2 2 2 2 2 2 62 62 62 62 62 62 33 33
 33 33 49 49 49 49 4 50 50 2 2 2 2 2 2 2 2 62 62 62
 62 62 33 33 33 33 33 49 49 49 49 50 50 50 50 2 2 2 2 2
 2 2 2 62 62 62 62 33 33 33 33 33 49 49 49 49 50 50 50 50
 50 2 2 2 2 2 2 2 62 62 62 33 33 33 33 33 33 33 49 49
 49 50 50 50 50 50 2 2 2 2 2 2 2 2 62 33 33 33 33 33
 33 33 33 49 49 98 98 98 98 98 50 50 2 2 2 2 2 2 2 62
 33 33 33 33 33 33 33 33 33 98 98 98 98 98 98 98 98 98 7 7
 7 7 7 37 63 33 33 33 33 33 33 33 33 98 98 98 98 98 98 98
 98 98 98 7 7 7 7 7 37 37 37 37 33 33 33 33 33 98 98 98
 98 98 98 98 98 98 98 98 7 7 7 7 7 37 37 37 37 37 37 37
 33 98 98 98 98 98 98 98 98 98 98 27 27 27 7 7 7 7 37 37
 37 37 37 37 37 37 98 98 98 98 98 98 98 98 98 27 27 27 27 7
 7 7 7 37 37 37 37 37 37 37 37 98 98 98 98 98 98 98 98 98
 27 27 27 27 27 7 7 7 37 37 37 37 37 37 37 37 98 98 98 98
 98 98 98 98 27 27 27 27 27 27 7 7 37 37 37 37 37 37 37 37
 37 37 98 98 98 98 98 98 98 27 27 27 27 27 27 19 19 19 37 37
 37 37 37 37 37 37 37 98 98 98 98 98 98 98 27 27 27 27 43 43
 43 19 19 19 37 37 37 37 37 37 37 37 98 98 98 76 76 76 76 27
 43 43 43 43 43 43 43 19 19 37 37 37 37 37 30 30 30 30 76 76
 76 76 76 76 76 43 43 43 43 43 43 43 43 19 37 37 37 37 37 30
 11 18 18 76 76 76 76 76 76 76 43 43 43 43 43 43 43 43 43 37
 37 11 11 11 11 11 11 18 76 76 76 76 76 76 76 76 43 43 43 43
 43 43 43 43 37 11 11 11 11 11 11 11 11 76 76 76 76 76 76 76
 76 48 48 43 43 43 43 43 43 80 11 11 11 11 11 11 11 11 76 76
 76 76 76 76 76 76 48 48 43 43 41 41 41 80 80 80 11 11 11 11
 11 11 11 76 76 76 76 76 76 76 76 48 48 41 41 41 41 41 80 80
 80 80 11 11 11 11 11 11 76 76 76 76 76 76 4 4 20 20 20 41
 41 41 41 62 80 80 80 11 11 11 11 11 11 4 4 4 4 4 4 4
 20 20 20 20 20 41 41 62 62 62 62 62 11 11 11 11 11 11 4 4
 4 4 83 83 83 20 20 20 20 20 20 20 62 62 62 62 62 62 11 11
 53 53 49 49 49 83 83 83 83 83 2 2 2 2 2 2 2 62 62 62
 62 62 62 33 33 33 49 49 49 49 49 83 83 83 83 2 2 2 2 2
 2 2 62 62 62 62 62 33 33 33 33 49 49 49 49 49 49 83 16 16
 2 2 2 2 2 2 2 2 62 62 62 33 33 33 33 33 49 49 49 49
 49 49 16 16 16 2 2 2 2 2 2 2 2 62 62 62 33 33 33 33
 33 33 49 49 49 49 49 98 50 98 2 2 2 2 2 2 2 2 2 62
 33 33 33 33 33 33 33 33 49 49 98 98 98 98 98 98 2 2 2 2
 2 2 2 2 33 33 33 33 33 33 33 33 33 49 98 98 98 98 98 98
 98 98 98 7 7 7 7 7 7 37 33 33 33 33 33 33 33 98 98 98
 98 98 98 98 98 98 98 98 7 7 7 7 7 7 37 37 37 33 33 33
 33 98 98 98 98 98 98 98 98 98 98 98 98 7 7 7 7 7 7 37
 37 37 37 37 37 98 98 98 98 98 98 98 98 98 98 98 98 27 7 7
 7 7 7 7 37 37 37 37 37 37 37 98 98 98 98 98 98 98 98 98
 98 27 27 27 7 7 7 7 7 37 37 37 37 37 37 37 98 98 98 98
 98 98 98 98 98 27 27 27 27 7 7 7 7 37 37 37 37 37 37 37
 37 98 98 98 98 98 98 98 98 98 27 27 27 27 27 7 7 19 19 37
 37 37 37 37 37 37 98 98 98 98 98 98 98 98 98 27 27 27 27 27
 19 19 19 19 19 37 37 37 37 37 37 32 98 98 98 98 98 98 98 98
 27 27 43 43 43 43 19 19 19 19 37 37 37 30 30 30 30 30 98 98
 76 76 76 76 43 43 43 43 43 43 43 43 19 19 19 19 37 37 30 30
 30 30 30 84 76 76 76 76 76 76 43 43 43 43 43 43 43 43 19 19
 19 37 30 30 30 30 30 30 84 76 76 76 76 76 76 43 43 43 43 43
 43 43 43 19 19 19 11 11 11 11 11 11 11 76 76 76 76 76 76 76
 43 43 43 43 43 43 43 43 43 19 11 11 11 11 11 11 11 11 76 76
 76 76 76 76 76 76 43 43 43 43 43 43 43 43 80 80 11 11 11 11
 11 11 11 76 76 76 76 76 76 76 76 43 43 43 43 43 43 43 80 80
 80 80 11 11 11 11 11 11 76 76 76 76 76 76 76 76 67 67 67 41
 41 41 41 80 80 80 80 11 11 11 11 11 11 11 76 76 76 76 76 76
 52 67 67 67 41 41 41 41 80 80 80 80 11 11 11 11 11 11 11 4
 83 83 83 83 83 52 67 67 67 67 67 41 62 80 80 80 80 11 11 11
 11 11 11 11 4 83 83 83 83 83 52 67 67 67 67 67 67 62 62 62
 62 62 62 11 53 53 53 53 53 49 83 83 83 83 83 52 2 2 2 2
 2 2 62 62 62 62 62 62 33 53 53 53 49 49 49 49 83 83 83 83
 52 2 2 2 2 2 2 62 62 62 62 62 33 33 33 53 49 49 49 49
 49 83 83 16 16 52 2 2 2 2 2 2 2 62 62 62 33 33 33 33
 33 49 49 49 49 49 16 16 16 16 16 2 2 2 2 2 2 2 62 62
 33 33 33 33 33 33 49 49 49 49 49 16 16 16 16 16 2 2 2 2
 2 2 2 2 33 33 33 33 33 33 33 33 49 49 49 98 98 98 98 98
 98 2 2 2 2 2 2 2 2 33 33 33 33 33 33 33 33 33 49 98
 98 98 98 98 98 98 98 98 7 7 7 7 7 7 37 37 33 33 33 33
 33 33 98 98 98 98 98 98 98 98 98 98 98 7 7 7 7 7 7 37
 37 37 37 33 33 33 98 98 98 98 98 98 98 98 98 98 98 98 7 7
 7 7 7 7 37 37 37 37 37 37 98 98 98 98 98 98 98 98 98 98
 98 98 27 7 7 7 7 7 7 37 37 37 37 37 37 32 98 98 98 98
 98 98 98 98 98 98 27 27 7 7 7 7 7 7 37 37 37 37 37 37
 32 32 98 98 98 98 98 98 98 98 98 27 27 7 7 7 7 7 19 19
 37 37 37 37 37 32 32 32 98 98 98 98 98 98 98 27 27 27 27 7
 7 19 19 19 19 37 37 37 37 37 32 32 32 98 98 98 98 98 98 98
 27 27 27 27 7 19 19 19 19 19 19 37 37 30 30 30 32 32 98 98
 98 98 98 98 98 27 43 43 43 43 19 19 19 19 19 19 37 30 30 30
 30 30 32 98 98 84 84 84 98 43 43 43 43 43 43 43 19 19 19 19
 19 19 30 30 30 30 30 30 84 84 84 84 84 76 43 43 43 43 43 43
 43 43 19 19 19 19 19 30 30 30 30 30 84 84 84 84 84 84 76 76
 43 43 43 43 43 43 43 43 19 19 75 11 11 11 11 11 11 11 84 84
 84 76 76 76 76 43 43 43 43 43 43 43 43 75 75 75 11 11 11 11
 11 11 11 84 84 76 76 76 76 76 76 43 43 43 43 43 43 43 75 80
 80 80 11 11 11 11 11 11 84 84 76 76 76 76 76 76 43 43 43 43
 43 43 75 80 80 80 80 11 11 11 11 11 11 84 84 76 76 76 76 76
 67 67 67 67 67 67 67 75 80 80 80 80 11 11 11 11 11 11 11 84
 76 76 76 83 52 52 67 67 67 67 67 67 75 80 80 80 80 80 11 11
 11 11 11 11 84 83 83 83 83 52 52 52 67 67 67 67 67 75 75 80
 80 80 75 11 11 11 53 53 53 83 83 83 83 83 52 52 52 67 67 67
 67 67 75 75 75 75 75 75 11 53 53 53 53 53 83 83 83 83 83 52
 52 52 52 67 67 67 67 67 62 75 75 75 75 53 53 53 53 53 49 83
 83 83 83 83 52 52 52 52 2 2 2 2 2 62 75 75 33 33 33 53
 53 53 49 49 49 49 83 83 16 52 52 52 52 2 2 2 2 2 62 62
 62 33 33 33 33 53 53 49 49 49 49 16 16 16 16 16 52 2 2 2
 2 2 2 2 62 33 33 33 33 33 33 49 49 49 49 49 16 16 16 16
 16 16 2 2 2 2 2 2 2 33 33 33 33 33 44 33 49 49 49 49
 98 98 16 16 16 16 16 2 2 2 2 2 2 21 33 33 33 33 33 33
 33 33 49 49 98 98 98 98 98 98 98 98 98 7 7 7 7 7 7 21
 37 33 33 33 33 33 44 98 98 98 98 98 98 98 98 98 98 98 7 7
 7 7 7 7 7 37 37 37 33 33 98 98 98 98 98 98 98 98 98 98
 98 98 98 7 7 7 7 7 7 7 37 37 37 37 32 32 98 98 98 98
 98 98 98 98 98 98 98 27 7 7 7 7 7 7 37 37 37 37 37 32
 32 32 98 98 98 98 98 98 98 98 98 27 27 7 7 7 7 7 7 19
 37 37 37 37 32 32 32 32 98 98 98 98 98 98 98 98 27 27 7 7
 7 7 19 19 19 19 37 37 37 32 32 32 32 32 98 98 98 98 98 98
 27 27 27 7 7 7 19 19 19 19 19 19 37 37 32 32 32 32 32 98
 98 98 98 98 98 27 27 27 43 7 19 19 19 19 19 19 19 30 30 30
 32 32 32 32 98 84 98 98 98 98 27 43 43 43 43 19 19 19 19 19
 19 19 30 30 30 30 30 32 32 84 84 84 84 84 84 43 43 43 43 43
 43 19 19 19 19 19 19 30 30 30 30 30 84 84 84 84 84 84 84 84
 43 43 43 43 43 43 43 19 19 19 19 19 30 30 30 30 30 84 84 84
 84 84 84 84 84 43 43 43 43 43 43 43 43 19 75 75 75 11 30 30
 30 30 84 84 84 84 84 84 84 84 43 43 43 43 43 43 43 43 75 75
 75 75 11 11 11 11 11 84 84 84 84 84 84 84 84 84 43 43 43 43
 43 43 75 75 75 75 75 11 11 11 11 11 11 84 84 84 84 84 84 84
 84 43 43 67 67 43 43 75 75 80 80 80 75 11 11 11 11 11 84 84
 84 84 84 84 52 52 67 67 67 67 67 67 75 80 80 80 80 75 11 11
 11 11 11 84 84 84 84 83 52 52 52 67 67 67 67 67 67 75 75 80
 80 80 75 11 11 11 11 11 11 84 83 83 83 52 52 52 52 67 67 67
 67 67 75 75 75 75 75 75 75 11 53 53 53 53 83 83 83 83 83 52
 52 52 67 67 67 67 67 67 75 75 75 75 75 75 53 53 53 53 53 83
 83 83 83 83 52 52 52 52 67 67 67 67 67 75 75 75 75 75 53 53
 53 53 53 53 83 83 83 83 83 52 52 52 52 52 67 67 67 67 75 75
 75 75 75 53 53 53 53 53 49 83 83 83 83 16 52 52 52 52 52 2
 2 2 2 75 75 75 33 33 33 53 53 53 53 49 49 49 16 16 16 16
 16 52 52 2 2 2 2 2 2 62 33 33 33 33 44 44 44 49 49 49
 49 16 16 16 16 16 52 52 2 2 2 3 3 3 3 65 33 33 33 44
 44 44 44 49 49 98 98 16 16 16 16 16 16 2 2 2 3 3 21 21
 33 33 33 33 44 44 44 44 98 98 98 98 98 98 98 98 98 98 7 7
 7 21 21 21 21 21 65 65 33 44 44 44 44 98 98 98 98 98 98 98
 98 98 98 7 7 7 7 7 7 21 21 37 36 36 32 44 44 98 98 98
 98 98 98 98 98 98 98 98 7 7 7 7 7 7 21 37 37 37 32 32
 32 32 98 98 98 98 98 98 98 98 98 98 68 7 7 7 7 7 7 7
 37 37 37 32 32 32 32 32 98 98 98 98 98 98 98 98 68 68 7 7
 7 7 7 19 19 19 19 37 32 32 32 32 32 32 98 98 98 98 98 98
 98 68 68 7 7 7 7 19 19 19 19 19 37 32 32 32 32 32 32 98
 98 98 98 98 98 98 68 68 1 7 19 19 19 19 19 19 19 37 32 32
 32 32 32 32 32 98 98 98 98 98 98 1 1 1 1 19 19 19 19 19
 19 19 30 30 30 32 32 32 32 32 84 84 84 84 98 98 1 1 1 1
 19 19 19 19 19 19 19 30 30 30 30 32 32 32 84 84 84 84 84 84
 43 43 43 43 43 43 19 19 19 19 19 19 30 30 30 30 30 84 84 84
 84 84 84 84 84 82 43 43 43 43 43 43 19 19 19 19 19 30 30 30
 30 30 84 84 84 84 84 84 84 84 82 82 43 43 43 43 43 54 54 75
 75 75 75 30 30 30 84 84 84 84 84 84 84 90 90 82 82 82 43 43
 43 54 54 54 75 75 75 75 11 11 11 84 84 84 84 84 84 84 90 90
 82 82 82 82 43 54 54 54 75 75 75 75 75 11 11 11 11 84 84 84
 84 84 84 90 90 82 82 67 67 67 54 54 75 75 75 75 75 75 11 11
 11 11 84 84 84 84 84 84 90 52 52 52 67 67 67 67 75 75 75 75
 75 75 75 75 11 11 11 11 84 84 84 84 84 52 52 52 52 67 67 67
 67 67 75 75 75 75 75 75 75 11 11 11 11 84 84 83 83 83 52 52
 52 52 67 67 67 67 67 75 75 75 75 75 75 75 11 53 53 53 53 83
 83 83 83 52 52 52 52 52 67 67 67 67 75 75 75 75 75 75 75 53
 53 53 53 53 83 83 83 83 52 52 52 52 52 67 67 67 67 75 75 75
 75 75 75 75 53 53 53 53 53 83 83 83 83 52 52 52 52 52 52 67
 67 67 75 75 75 75 75 75 53 53 53 53 53 53 83 83 83 83 52 52
 52 52 52 52 67 67 3 3 75 75 75 65 65 53 53 53 53 53 53 83
 83 16 16 16 16 69 69 52 52 3 3 3 3 3 65 65 65 65 65 44
 44 44 44 44 49 16 16 16 16 16 69 69 52 52 3 3 3 3 3 65
 65 65 65 65 44 44 44 44 44 44 98 98 16 16 16 69 69 69 69 3
 3 3 3 21 21 65 65 65 65 44 44 44 44 44 98 98 98 98 98 98
 69 69 69 69 21 21 21 21 21 21 21 65 65 65 44 44 44 44 44 98
 98 98 98 98 98 69 69 69 21 21 21 21 21 21 21 21 36 36 36 44
 44 44 44 98 98 98 98 98 98 98 98 98 68 68 21 21 21 21 21 21
 21 36 36 36 32 32 32 98 98 98 98 98 98 98 98 68 68 68 68 7
 21 21 21 21 21 21 21 32 32 32 32 32 32 98 98 98 98 98 98 98
 68 68 68 68 7 7 7 19 19 19 19 19 32 32 32 32 32 32 32 98
 98 98 98 98 98 68 68 68 68 68 7 7 19 19 19 19 19 12 32 32
 32 32 32 32 25 25 98 98 98 98 68 68 68 1 1 1 19 19 19 19
 19 19 12 12 32 32 32 32 32 25 25 25 98 98 98 68 68 68 1 1
 1 19 19 19 19 19 19 12 12 12 32 32 32 32 25 84 84 84 84 84
 1 1 1 1 1 1 19 19 19 19 19 19 30 30 30 30 32 32 25 25
 84 84 84 84 84 82 82 82 43 43 43 19 19 19 19 19 19 30 30 30
 30 30 84 84 84 84 84 84 84 84 82 82 82 82 43 54 54 54 54 54
 17 17 17 17 30 30 30 84 84 84 84 84 84 84 84 82 82 82 82 82
 54 54 54 54 54 75 17 17 17 30 30 84 84 84 84 84 84 84 90 90
 82 82 82 82 82 54 54 54 54 75 75 75 75 17 11 11 84 84 84 84
 84 84 84 90 90 82 82 82 82 82 54 54 54 54 75 75 75 75 75 11
 11 84 84 84 84 84 84 84 90 90 82 82 82 82 54 54 54 54 75 75
 75 75 75 75 75 11 11 84 84 84 84 84 84 90 90 82 82 67 67 67
 54 54 54 75 75 75 75 75 75 75 11 11 78 78 84 84 84 52 52 52
 52 52 52 67 67 67 54 75 75 75 75 75 75 75 75 11 78 78 78 78
 83 83 52 52 52 52 52 52 67 67 67 67 75 75 75 75 75 75 75 75
 53 53 53 78 78 83 83 83 52 52 52 52 52 67 67 67 67 75 75 75
 75 75 75 75 75 53 53 53 53 83 83 83 83 52 52 52 52 52 52 67
 67 67 75 75 75 75 75 75 75 53 53 53 53 53 83 83 83 52 52 52
 52 52 52 52 67 67 67 55 75 75 75 75 75 75 53 53 53 53 53 83
 83 83 52 52 52 52 52 52 52 52 3 3 3 55 55 65 65 65 65 53
 44 44 44 53 83 83 16 52 52 69 69 69 52 52 3 3 3 3 3 65
 65 65 65 65 44 44 44 44 44 44 16 16 16 16 69 69 69 52 52 3
 3 3 3 21 65 65 65 65 65 44 44 44 44 44 44 98 98 16 16 69
 69 69 69 69 3 3 3 3 21 21 65 65 65 65 44 44 44 44 44 44
 98 98 98 38 38 69 69 21 21 21 21 21 21 21 21 21 65 65 65 65
 44 44 44 44 81 98 98 98 38 38 35 35 35 21 21 21 21 21 21 21
 21 36 36 36 36 44 44 44 81 98 98 98 98 38 38 35 68 68 21 21
 21 21 21 21 21 21 36 36 36 32 32 32 32 98 98 25 98 98 98 98
 68 68 68 68 21 21 21 21 21 21 21 21 36 32 32 32 32 32 98 98
 25 25 98 98 98 68 68 68 68 68 21 21 21 21 21 21 21 32 32 32
 32 32 32 25 25 25 25 25 98 68 68 68 68 68 68 68 21 19 19 19
 19 12 12 12 12 32 32 32 25 25 25 25 25 25 68 68 68 68 68 1
 1 19 19 19 19 19 19 12 12 12 32 32 32 25 25 25 25 25 25 68
 68 68 68 68 1 1 19 19 19 19 19 19 12 12 12 32 32 32 25 25
 25 84 84 84 84 68 68 68 1 1 1 19 19 19 19 19 19 12 12 12
 32 32 25 25 25 84 84 84 84 84 82 82 82 82 82 54 19 19 19 19
 19 17 17 17 30 30 84 84 84 84 84 84 84 84 84 82 82 82 82 82
 54 54 54 54 54 17 17 17 17 17 30 84 84 84 84 84 84 84 84 84
 82 82 82 82 82 54 54 54 54 54 17 17 17 17 17 30 84 84 84 84
 84 84 84 90 90 82 82 82 82 82 54 54 54 54 54 75 17 17 17 17
 17 84 84 84 84 84 84 84 90 90 82 82 82 82 82 54 54 54 54 54
 75 75 75 75 75 11 84 84 84 84 84 84 84 84 90 82 82 82 82 54
 54 54 54 54 75 75 75 75 75 75 11 78 78 78 84 84 84 84 84 52
 82 82 82 82 54 54 54 54 54 75 75 75 75 75 75 11 78 78 78 78
 78 84 52 52 52 52 52 52 52 54 54 54 54 75 75 75 75 75 75 75
 75 78 78 78 78 78 83 52 52 52 52 52 52 52 67 54 54 75 75 75
 75 75 75 75 75 75 78 78 78 78 83 83 52 52 52 52 52 52 52 67
 67 67 75 75 75 75 75 75 75 75 53 53 53 78 83 83 83 52 52 52
 52 52 52 52 67 67 67 75 75 75 75 75 75 75 75 53 53 53 53 83
 83 83 52 52 52 52 52 52 52 52 55 55 55 55 55 75 75 65 65 53
 53 53 53 53 83 83 83 91 91 52 52 52 52 52 52 55 55 55 55 55
 55 65 65 65 65 44 44 44 44 83 83 91 91 91 52 69 69 52 52 3
 3 3 3 55 55 65 65 65 65 65 44 44 44 44 44 16 16 16 91 69
 69 69 52 52 3 3 3 21 21 21 65 65 65 65 65 44 44 44 44 44
 98 98 16 16 69 69 69 69 21 21 21 21 21 21 21 65 65 65 65 65
 44 44 44 44 44 81 81 38 38 35 35 35 35 21 21 21 21 21 21 21
 21 65 36 36 36 44 81 81 81 81 81 81 38 38 35 35 35 35 21 21
 21 21 21 21 21 21 36 36 36 36 81 81 81 81 81 25 25 38 38 35
 35 35 68 21 21 21 21 21 21 21 21 36 36 36 36 32 81 81 81 81
 25 25 38 38 68 68 68 68 68 21 21 21 21 21 21 21 21 36 36 32
 32 32 32 81 25 25 25 25 25 68 68 68 68 68 68 21 21 21 21 21
 21 21 12 32 32 32 32 25 25 25 25 25 25 25 68 68 68 68 68 68
 21 21 21 21 21 21 12 12 12 12 32 32 25 25 25 25 25 25 25 68
 68 68 68 68 68 68 21 19 19 19 19 12 12 12 12 12 25 25 25 25
 25 25 25 25 68 68 68 68 68 68 1 19 19 19 19 71 71 12 12 12
 12 25 25 25 25 25 25 25 25 68 68 68 68 68 64 64 19 19 19 19
 19 71 71 12 12 25 25 25 25 25 84 84 84 84 84 82 82 82 82 64
 54 54 54 54 54 17 17 17 17 17 25 25 25 25 84 84 84 84 84 84
 82 82 82 82 82 54 54 54 54 54 17 17 17 17 17 17 84 84 84 84
 84 84 84 84 84 82 82 82 82 82 54 54 54 54 54 17 17 17 17 17
 56 84 84 84 84 84 84 84 84 90 82 82 82 82 82 54 54 54 54 54
 54 17 17 17 17 56 84 84 84 84 84 84 84 84 90 82 82 82 82 82
 54 54 54 54 54 54 75 75 17 56 56 56 84 84 84 84 84 84 84 84
 82 82 82 82 54 54 54 54 54 54 75 75 75 75 56 56 56 78 78 78
 78 84 84 84 42 42 82 82 82 54 54 54 54 54 75 75 75 75 75 75
 56 78 78 78 78 78 84 84 52 42 42 42 52 82 54 54 54 54 54 75
 75 75 75 75 75 56 78 78 78 78 78 52 52 52 42 42 42 52 52 54
 54 54 54 75 75 75 75 75 75 75 78 78 78 78 78 83 52 52 52 52
 52 52 52 52 52 55 55 55 75 75 75 75 75 75 75 78 78 78 78 78
 83 52 52 52 52 52 52 52 52 52 55 55 55 55 55 55 75 75 75 75
 53 53 78 78 78 13 91 91 91 52 52 52 52 52 55 55 55 55 55 55
 55 55 65 65 65 53 53 53 78 83 13 91 91 91 91 52 52 52 52 55
 55 55 55 55 55 55 65 65 65 65 44 44 44 44 93 13 91 91 91 91
 52 52 52 52 55 55 55 55 55 55 65 65 65 65 65 44 44 44 44 81
 13 91 91 91 91 69 69 52 21 21 21 21 21 21 21 65 65 65 65 65
 44 44 44 44 81 81 81 91 91 69 69 69 69 21 21 21 21 21 21 21
 65 65 65 65 65 44 44 44 81 81 81 81 38 38 35 35 35 35 10 21
 21 21 21 21 21 21 21 36 36 36 81 81 81 81 81 81 81 38 38 35
 35 35 35 10 21 21 21 21 21 21 21 21 36 36 36 81 81 81 81 81
 81 81 38 38 35 35 35 35 10 21 21 21 21 21 21 21 21 36 36 36
 81 81 81 81 81 25 25 25 38 35 35 68 68 68 21 21 21 21 21 21
 21 21 36 36 25 25 25 25 25 25 25 25 25 25 68 68 68 68 68 21
 21 21 21 21 21 21 21 71 12 25 25 25 25 25 25 25 25 25 25 68
 68 68 68 68 64 64 21 21 21 21 21 71 71 12 25 25 25 25 25 25
 25 25 25 25 68 68 68 68 68 64 64 64 21 21 21 71 71 71 71 12
 25 25 25 25 25 25 25 25 25 25 68 68 68 64 64 64 64 64 64 71
 71 71 71 71 12 25 25 25 25 25 25 25 25 25 15 64 64 64 64 64
 64 64 64 64 71 71 71 71 71 12 25 25 25 25 25 84 84 84 84 15
 15 64 64 64 64 64 64 54 54 54 17 17 17 17 17 25 25 25 25 25
 84 84 84 84 15 15 82 82 82 64 54 54 54 54 54 17 17 17 17 17
 17 25 84 84 84 84 84 84 84 84 82 82 82 82 82 54 54 54 54 54
 17 17 17 17 17 56 56 84 84 84 84 84 84 84 84 82 82 82 82 82
 54 54 54 54 54 54 17 17 17 56 56 56 84 84 84 84 84 84 84 84
 82 82 82 82 54 54 54 54 54 54 54 75 17 17 56 56 56 56 84 84
 84 84 84 84 85 85 82 82 82 54 54 54 54 54 54 54 75 75 56 56
 56 56 78 78 78 78 84 84 42 85 85 85 42 92 92 54 54 54 54 54
 75 75 75 75 56 56 56 78 78 78 78 84 42 42 42 42 42 42 92 92
 54 54 54 54 54 75 75 75 75 56 56 78 78 78 78 78 42 42 42 42
 42 42 42 42 54 54 92 54 54 75 75 75 75 75 9 9 9 78 78 78
 13 13 42 42 42 42 42 42 42 42 55 55 55 55 55 55 75 75 75 9
 9 9 9 78 78 13 13 52 42 42 42 42 42 52 55 55 55 55 55 55
 55 55 55 55 9 9 9 9 78 93 13 13 91 91 52 52 52 52 55 55
 55 55 55 55 55 55 55 55 65 65 53 53 93 93 93 13 13 91 91 91
 52 52 52 55 55 55 55 55 55 55 55 55 65 65 65 65 44 93 93 93
 13 13 91 91 91 52 52 52 55 55 55 55 55 55 55 55 65 65 65 65
 65 81 81 81 81 13 13 91 91 91 69 69 21 21 21 21 21 21 21 55
 65 65 65 65 65 65 81 81 81 81 81 81 91 91 35 35 35 21 21 21
 21 21 21 21 21 21 65 65 65 65 65 81 81 81 81 81 81 81 35 35
 35 35 10 10 10 21 21 21 21 21 21 21 22 22 81 81 81 81 81 81
 81 81 81 35 35 35 35 10 10 10 21 21 21 21 21 21 21 36 36 81
 81 81 81 81 81 81 81 81 35 35 35 35 10 10 10 21 21 21 21 21
 21 21 36 36 81 81 81 81 81 81 81 25 25 35 35 35 35 10 10 21
 21 21 21 21 21 21 21 21 73 25 25 81 81 81 81 25 25 25 25 68
 68 68 68 64 64 21 21 21 21 21 21 21 71 73 73 25 25 25 25 25
 25 25 25 25 68 68 68 68 64 64 64 21 21 21 21 21 71 71 73 73
 25 25 25 25 25 25 25 25 25 25 64 64 64 64 64 64 64 64 64 71
 71 71 71 71 25 25 25 25 25 25 25 25 25 25 25 64 64 64 64 64
 64 64 64 64 71 71 71 71 71 71 25 25 25 25 25 25 25 25 15 15
 64 64 64 64 64 64 64 64 64 71 71 71 71 71 28 28 25 25 25 25
 25 25 84 15 15 15 64 64 64 64 64 64 64 54 54 17 17 71 17 66
 28 25 25 25 25 84 84 84 15 15 15 15 64 64 64 64 96 54 54 54
 17 17 17 17 66 66 25 84 84 84 84 84 84 15 15 15 82 82 82 96
 96 96 54 54 54 54 17 17 17 56 56 56 84 84 84 84 84 84 84 15
 82 82 82 82 96 96 54 54 54 54 54 17 17 17 56 56 56 56 84 84
 84 84 84 84 85 82 82 82 82 92 92 54 54 54 54 54 54 17 56 56
 56 56 56 87 84 84 84 84 85 85 85 85 82 92 92 92 92 54 54 54
 54 75 75 56 56 56 56 56 78 78 78 84 42 42 85 85 85 42 92 92
 92 92 92 54 54 54 75 75 56 56 56 56 56 78 78 78 6 42 42 42
 42 42 42 92 92 92 92 92 54 54 75 75 75 75 9 9 9 9 78 78
 78 42 42 42 42 42 42 42 92 92 92 92 92 55 55 55 75 75 9 9
 9 9 9 9 78 13 13 42 42 42 42 42 42 42 55 55 55 55 55 55
 55 55 55 9 9 9 9 9 9 9 13 13 13 42 42 42 42 42 42 55
 55 55 55 55 55 55 55 55 55 9 9 9 9 93 93 13 13 13 13 42
 42 42 42 55 55 55 55 55 55 55 55 55 55 55 88 88 9 93 93 93
 13 13 13 13 13 52 52 55 55 55 55 55 55 55 55 55 55 55 65 65
 45 93 93 93 93 13 13 13 13 13 52 52 55 55 55 55 55 55 55 55
 55 22 22 22 65 65 93 93 93 13 13 13 13 13 13 35 35 10 21 21
 21 21 55 55 55 55 22 22 22 65 65 81 81 81 81 81 13 13 13 35
 35 35 10 10 10 21 21 21 21 21 21 22 22 22 65 81 81 81 81 81
 81 81 81 35 35 35 35 10 10 10 10 21 21 21 21 21 21 22 22 81
 81 81 81 81 81 81 81 81 35 35 35 35 10 10 10 10 21 21 21 21
 21 21 21 36 81 81 81 81 81 81 81 81 81 35 35 35 35 10 10 10
 10 21 21 21 21 21 21 21 21 81 81 81 81 81 81 81 81 81 35 35
 35 35 10 10 10 21 21 21 21 21 21 21 21 73 73 81 81 81 81 81
 25 25 25 25 35 64 64 64 64 64 64 21 21 21 21 21 21 73 73 73
 25 25 25 25 25 25 25 25 25 25 64 64 64 64 64 64 64 21 21 21
 21 71 71 73 73 73 25 25 25 25 25 25 25 25 25 64 64 64 64 64
 64 64 64 64 21 71 71 71 71 73 28 25 25 25 25 25 25 25 25 25
 64 64 64 64 64 64 64 64 64 99 71 71 71 71 28 28 28 25 25 25
 25 25 25 15 15 64 64 64 64 64 64 64 64 64 99 99 71 71 66 66
 28 28 25 25 25 25 25 15 15 15 15 64 64 64 64 64 64 64 64 99
 99 66 66 66 66 28 28 25 25 25 84 84 15 15 15 15 64 64 64 64
 64 96 96 96 96 39 66 66 66 66 66 28 28 25 84 84 84 15 15 15
 15 15 96 96 96 96 96 96 96 96 39 17 66 66 66 56 56 87 87 84
 84 84 84 15 15 15 82 96 96 96 96 96 96 96 96 39 39 17 56 56
 56 56 87 87 87 87 84 84 15 15 15 82 96 96 96 92 92 92 96 54
 39 39 39 56 56 56 56 87 87 87 87 6 6 6 85 85 85 82 92 92
 92 92 92 92 54 54 39 39 56 56 56 56 56 87 87 6 6 6 42 85
 85 85 42 92 92 92 92 92 92 92 54 39 75 56 56 56 56 9 87 87
 6 6 6 42 42 42 42 42 92 92 92 92 92 92 92 75 75 75 9 9
 9 9 9 9 78 6 6 42 42 42 42 42 42 92 92 92 92 92 92 55
 55 55 9 9 9 9 9 9 9 9 13 13 13 42 42 42 42 42 92 92
 92 55 55 55 55 55 55 55 9 9 9 9 9 9 9 13 13 13 13 42
 42 42 42 92 55 55 55 55 55 55 55 55 55 55 9 9 9 9 93 93
 13 13 13 13 13 42 42 42 55 55 55 55 55 55 55 55 55 55 88 88
 88 88 93 93 93 13 13 13 13 13 13 42 55 55 55 55 55 55 55 55
 55 55 55 45 45 45 93 93 93 93 13 13 13 13 13 13 13 55 55 55
 55 55 55 55 55 55 55 22 22 45 45 93 93 93 93 13 13 13 13 13
 13 10 10 55 55 55 55 55 55 55 55 22 22 22 45 45 81 81 81 81
 81 13 13 13 13 35 10 10 10 10 21 21 21 21 21 55 22 22 22 22
 81 81 81 81 81 81 81 81 35 35 35 10 10 10 10 10 21 21 21 21
 8 8 8 8 81 81 81 81 81 81 81 81 81 35 35 35 10 10 10 10
 10 21 21 21 21 8 8 8 8 81 81 81 81 81 81 81 81 81 35 35
 35 10 10 10 10 10 21 21 21 21 8 8 8 8 81 81 81 81 81 81
 81 81 81 81 35 35 10 10 10 10 10 21 21 21 21 21 21 73 73 73
 81 81 81 81 81 25 25 25 25 40 40 64 64 64 64 64 21 21 21 21
 21 73 73 73 73 73 25 25 25 25 25 25 25 25 40 64 64 64 64 64
 64 64 64 99 99 99 99 73 73 73 73 25 25 25 25 25 25 25 25 40
 64 64 64 64 64 64 64 64 99 99 99 99 71 73 73 28 28 25 25 25
 25 25 25 25 40 40 64 64 64 64 64 64 64 99 99 99 99 71 71 28
 28 28 28 25 25 25 25 25 15 15 15 64 64 64 64 64 64 64 99 99
 99 66 66 66 66 28 28 28 25 25 25 25 15 15 15 15 64 64 64 64
 64 64 64 64 99 99 66 66 66 66 66 28 28 25 25 25 15 15 15 15
 15 64 64 64 64 96 96 96 96 96 39 66 66 66 66 66 28 28 25 25
 84 15 15 15 15 15 15 96 96 96 96 96 96 96 96 39 39 66 66 66
 66 56 87 87 87 87 84 15 15 15 15 15 96 96 96 96 96 96 96 39
 39 39 39 66 56 56 56 87 87 87 87 87 6 15 15 15 97 96 96 96
 96 96 96 96 39 39 39 39 56 56 56 56 87 87 87 6 6 6 6 85
 97 97 96 96 92 92 92 92 92 39 39 39 39 56 56 56 56 87 87 87
 6 6 6 6 42 42 97 97 92 92 92 92 92 92 92 39 39 39 56 9
 9 9 9 87 87 6 6 6 42 42 42 42 97 92 92 92 92 92 92 92
 39 39 39 9 9 9 9 9 9 9 6 6 6 42 42 42 42 42 92 92
 92 92 92 92 55 55 55 9 9 9 9 9 9 9 9 13 13 13 42 42
 42 42 42 92 92 92 92 55 55 55 55 55 55 88 9 9 9 9 9 9
 13 13 13 13 42 42 42 42 55 55 55 55 55 55 55 55 55 55 88 88
 88 9 9 93 93 13 13 13 13 13 42 42 55 55 55 55 55 55 55 55
 55 55 55 88 88 88 88 93 93 93 13 13 13 13 13 13 13 55 55 55
 55 55 55 55 55 55 55 55 45 45 45 88 93 93 93 13 13 13 13 13
 13 29 29 55 55 55 55 55 55 55 55 55 55 45 45 45 45 93 93 93
 13 13 13 13 13 13 29 10 55 55 55 55 55 55 55 55 55 55 45 45
 45 81 81 81 81 81 13 13 13 13 35 10 10 10 10 10 21 55 55 55
 55 55 55 22 45 81 81 81 81 81 81 81 81 81 35 35 10 10 10 10
 10 10 21 21 8 8 8 8 8 81 81 81 81 81 81 81 81 81 81 35
 35 10 10 10 10 10 10 21 21 8 8 8 8 8 81 81 81 81 81 81
 81 81 81 40 40 40 10 10 10 10 10 10 21 21 8 8 8 8 8 81
 81 81 81 81 81 81 81 81 40 40 40 40 10 10 10 10 21 21 21 8
 8 8 8 73 73 81 81 81 81 81 25 25 25 40 40 40 40 64 64 64
 64 64 21 21 99 99 99 99 73 73 73 25 25 25 25 25 25 25 40 40
 40 40 64 64 64 64 64 64 99 99 99 99 99 73 73 73 25 25 25 25
 25 25 25 40 40 40 40 64 64 64 64 64 64 99 99 99 99 99 73 73
 28 28 25 25 25 25 25 25 40 40 40 40 64 64 64 64 64 64 99 99
 99 99 99 71 28 28 28 28 25 25 25 25 25 40 40 40 64 64 64 64
 64 64 64 99 99 99 99 99 66 66 28 28 28 25 25 25 25 25 15 15
 15 64 64 64 64 64 64 96 99 99 99 99 66 66 66 66 28 25 25 25
 25 15 15 15 15 15 64 64 64 96 96 96 96 96 39 39 39 66 66 66
 66 28 25 25 25 84 15 15 15 15 15 15 96 96 96 96 96 96 96 39
 39 39 39 66 66 66 87 87 87 87 87 87 15 15 15 15 97 96 96 96
 96 96 96 96 39 39 39 39 39 66 56 87 87 87 87 87 87 6 15 97
 97 97 96 96 96 96 96 96 96 39 39 39 39 39 56 56 56 87 87 87
 6 6 6 97 97 97 97 97 96 96 96 96 96 96 39 39 39 39 39 56
 56 56 87 87 87 6 6 6 97 97 97 97 97 97 92 92 92 92 92 39
 39 39 39 39 9 9 9 9 87 87 6 6 6 97 97 97 97 97 97 92
 92 92 92 92 92 39 39 39 39 9 9 9 9 9 9 6 6 6 97 97
 97 97 97 97 92 92 92 92 92 55 55 55 88 88 9 9 9 9 9 9
 13 13 13 13 97 97 97 97 97 92 92 92 55 55 55 55 55 88 88 88
 9 9 9 9 9 13 13 13 13 13 42 42 97 97 55 55 55 55 55 55
 55 55 88 88 88 88 88 88 88 93 13 13 13 13 13 42 42 55 55 55
 55 55 55 55 55 55 55 55 88 88 88 88 88 93 93 13 13 13 13 13
 13 29 29 55 55 55 55 55 55 55 55 55 55 88 45 45 88 93 93 93
 13 13 13 13 13 29 29 29 29 55 55 55 55 55 55 55 55 55 45 45
 45 88 93 93 93 13 13 13 13 13 29 29 29 29 55 55 55 55 55 55
 55 55 55 45 45 88 88 81 81 81 81 81 13 13 13 29 29 29 10 10
 10 55 55 55 55 55 55 55 55 45 81 81 81 81 81 81 81 81 81 40
 40 10 10 10 10 10 95 55 8 8 8 8 8 8 81 81 81 81 81 81
 81 81 81 81 40 40 40 10 10 10 10 10 21 8 8 8 8 8 8 81
 81 81 81 81 81 81 81 81 40 40 40 40 10 10 10 10 10 21 8 8
 8 8 8 8 81 81 81 81 81 81 81 81 40 40 40 40 40 57 57 57
 57 57 21 8 8 8 8 8 8 73 81 81 81 81 81 25 25 40 40 40
 40 40 40 57 57 57 57 99 99 99 99 99 99 73 73 25 25 25 25 25
 25 25 40 40 40 40 40 40 57 57 57 57 99 99 99 99 99 99 99 73
 25 25 25 25 25 25 25 40 40 40 40 40 64 64 64 64 64 99 99 99
 99 99 99 99 73 28 25 25 25 25 25 25 40 40 40 40 40 64 64 64
 64 64 99 99 99 99 99 99 99 28 28 28 25 25 25 25 25 25 40 40
 40 40 64 64 64 64 64 99 99 99 99 99 99 99 28 28 28 25 25 25
 25 25 25 40 40 40 64 64 64 64 64 64 96 99 99 99 99 99 66 66
 66 28 25 25 25 25 74 15 15 15 15 64 64 96 96 96 96 96 96 39
 39 39 39 66 66 66 28 25 25 25 74 74 15 15 15 15 97 96 96 96
 96 96 96 96 39 39 39 39 66 66 66 87 87 87 87 87 87 15 15 97
 97 97 96 96 96 96 96 96 96 39 39 39 39 39 66 56 87 87 87 87
 87 87 6 97 97 97 97 97 96 96 96 96 96 96 39 39 39 39 39 56
 56 56 87 87 87 6 6 6 97 97 97 97 97 96 96 96 96 96 96 39