# vtk DataFile Version 2.0
Data set from ImportExport Version 6.5.141.ec284b7a5
ASCII

DATASET RECTILINEAR_GRID
DIMENSIONS 26 26 26
X_COORDINATES 26 float
-3.000000 3.000000 9.000000 15.000000 21.000000 27.000000 33.000000 39.000000 45.000000 51.000000 57.000000 63.000000 69.000000 75.000000 81.000000 87.000000 93.000000 99.000000 105.000000 111.000000 117.000000 
123.000000 129.000000 135.000000 141.000000 147.000000 
Y_COORDINATES 26 float
-3.000000 3.000000 9.000000 15.000000 21.000000 27.000000 33.000000 39.000000 45.000000 51.000000 57.000000 63.000000 69.000000 75.000000 81.000000 87.000000 93.000000 99.000000 105.000000 111.000000 117.000000 
123.000000 129.000000 135.000000 141.000000 147.000000 
Z_COORDINATES 26 float
-3.000000 3.000000 9.000000 15.000000 21.000000 27.000000 33.000000 39.000000 45.000000 51.000000 57.000000 63.000000 69.000000 75.000000 81.000000 87.000000 93.000000 99.000000 105.000000 111.000000 117.000000 
123.000000 129.000000 135.000000 141.000000 147.000000 
CELL_DATA 15625
SCALARS FeatureIds int 1
LOOKUP_TABLE default
 39 39 39 39 39 39 48 48 48 60 60 60 72 72 45 45 45 45 45 45
 45 45 45 45 39 39 39 39 39 39 39 48 48 48 60 60 60 72 72 5
 45 45 45 45 45 45 45 45 45 39 11 39 39 39 39 48 48 48 48 60
 60 60 72 72 5 5 45 45 45 45 45 45 45 45 39 11 11 11 11 11
 48 48 48 48 48 60 60 60 5 5 5 5 45 45 45 45 45 45 11 11
 11 11 11 11 48 48 48 48 48 48 60 60 91 91 91 5 5 5 5 34
 34 34 34 34 11 8 8 8 8 48 48 48 48 48 48 60 60 91 91 91
 5 5 5 5 34 34 34 34 34 8 8 8 8 8 48 48 48 48 48 48
 60 60 91 91 5 5 5 5 5 34 34 34 34 34 34 34 8 8 8 48
 48 48 48 48 48 60 60 91 91 5 5 4 4 4 4 34 34 34 34 34
 34 34 34 8 48 48 48 48 48 60 60 60 76 76 5 4 4 4 4 4
 34 34 34 34 34 34 34 34 70 70 70 48 48 48 60 60 76 76 76 76
 4 4 4 4 4 34 34 34 34 34 34 34 34 70 70 70 70 70 70 76
 76 76 76 76 76 4 4 4 4 4 34 34 34 34 34 34 34 70 70 70
 70 70 70 70 76 76 76 76 76 76 76 4 4 4 4 57 57 57 57 34
 57 57 70 70 70 70 70 70 70 76 76 76 76 76 76 76 76 4 4 4
 57 57 57 57 57 57 57 70 70 70 70 70 70 64 64 76 76 76 76 76
 76 76 13 13 13 57 57 57 57 57 57 57 70 70 14 14 14 64 64 64
 64 76 76 76 76 76 76 13 13 13 13 57 57 57 57 57 57 14 14 14
 14 14 64 64 64 64 76 76 76 76 76 76 13 13 13 13 13 57 57 57
 57 14 14 14 14 14 14 64 64 64 64 76 76 76 76 12 13 13 13 13
 13 13 13 57 57 57 14 14 14 14 14 14 64 64 64 64 76 76 12 12
 12 13 13 13 13 13 13 13 57 57 57 59 59 59 59 59 43 43 43 64
 64 76 76 12 12 12 13 13 13 13 13 13 13 45 45 59 59 59 59 59
 59 43 43 43 43 64 76 76 12 12 12 45 45 45 45 45 45 45 45 45
 39 59 59 59 59 59 43 43 43 43 43 43 76 12 12 45 45 45 45 45
 45 45 45 45 45 39 39 69 69 59 26 99 99 99 99 99 99 68 45 45
 45 45 45 45 45 45 45 45 45 45 39 39 39 69 69 26 99 99 99 99
 99 68 68 45 45 45 45 45 45 45 45 45 45 45 45 39 39 39 39 69
 69 69 99 99 99 99 89 89 45 45 45 45 45 45 45 45 45 45 45 45
 39 39 39 39 39 39 69 99 99 99 89 89 45 45 45 45 45 45 45 45
 45 45 45 45 39 39 39 39 39 39 39 39 48 48 60 60 72 72 72 72
 45 45 45 45 45 45 45 45 45 39 39 39 39 39 39 39 48 48 48 60
 60 72 72 72 72 72 45 45 45 45 45 45 45 45 39 11 11 39 39 39
 39 48 48 48 60 60 72 72 72 72 72 45 45 45 45 45 45 45 39 11
 11 11 11 11 11 48 48 48 48 48 60 72 72 72 72 72 5 45 45 45
 45 34 34 34 11 11 11 11 11 11 48 48 48 48 48 60 91 91 91 91
 91 5 102 102 102 34 34 34 34 11 8 8 8 8 48 48 48 48 48 48
 60 91 91 91 91 91 5 102 102 102 34 34 34 34 34 8 8 8 8 48
 48 48 48 48 48 60 60 91 91 91 91 102 102 102 102 34 34 34 34 34
 34 8 8 8 8 48 48 48 48 48 60 60 91 91 5 5 102 102 102 102
 34 34 34 34 34 34 34 34 8 8 48 48 48 48 60 60 60 76 76 76
 4 4 4 4 102 34 34 34 34 34 34 34 34 34 70 70 48 48 48 60
 60 76 76 76 76 4 4 4 102 102 34 34 34 34 34 34 34 34 70 70
 70 70 70 70 76 76 76 76 76 76 76 4 4 4 102 34 34 34 34 34
 57 34 34 70 70 70 70 70 70 76 76 76 76 76 76 76 4 4 4 4
 57 57 57 57 57 57 57 57 70 70 70 70 70 64 76 76 76 76 76 76
 76 76 4 4 57 57 57 57 57 57 57 57 57 14 14 14 14 14 64 64
 76 76 76 76 76 76 76 13 13 57 57 57 57 57 57 57 57 14 14 14
 14 14 14 64 64 64 76 76 76 76 76 76 13 13 13 13 57 57 57 57
 57 57 14 14 14 14 14 14 64 64 64 76 76 76 76 76 76 13 13 13
 13 13 57 57 57 57 57 14 14 14 14 14 64 64 64 64 64 76 76 76
 76 13 13 13 13 13 13 13 57 57 57 57 14 14 14 59 59 59 64 64
 64 64 76 76 76 76 13 13 13 13 13 13 13 57 57 57 59 59 59 59
 59 59 59 59 64 64 64 76 76 76 13 13 13 13 13 13 13 13 13 57
 59 59 59 59 59 59 59 59 59 59 64 64 76 76 76 13 13 13 13 13
 45 45 45 45 45 59 59 59 59 59 59 59 59 43 43 68 68 68 68 76
 45 45 45 45 45 45 45 45 45 45 39 69 69 69 69 69 69 69 69 69
 68 68 68 68 45 45 45 45 45 45 45 45 45 45 45 39 39 39 69 69
 69 69 69 69 69 68 68 68 68 45 45 45 45 45 45 45 45 45 45 45
 39 39 39 39 69 69 69 69 69 69 89 89 89 45 45 45 45 45 45 45
 45 45 45 45 45 39 39 39 39 69 69 69 69 69 69 89 89 89 45 45
 45 45 45 45 45 45 45 45 45 39 39 39 39 39 39 24 24 24 24 49
 49 16 16 16 16 16 45 45 45 45 45 45 45 45 39 39 39 39 39 39
 39 24 24 48 60 16 16 16 16 16 16 45 45 45 45 45 45 45 39 39
 11 11 39 39 39 39 24 24 48 60 72 72 72 72 72 72 72 45 45 45
 45 45 45 34 11 11 11 11 11 11 11 48 48 48 48 72 72 72 72 72
 72 72 45 45 102 34 34 34 34 11 11 11 11 11 11 48 48 48 48 48
 72 72 72 72 72 72 72 102 102 102 34 34 34 34 34 8 8 8 8 8
 48 48 48 48 48 60 91 91 91 91 91 102 102 102 102 34 34 34 34 34
 34 8 8 8 8 48 48 48 48 48 60 91 91 91 91 91 102 102 102 102
 34 34 34 34 34 34 34 8 8 8 48 48 48 48 48 60 91 91 91 91
 102 102 102 102 102 34 34 34 34 34 34 34 34 34 34 48 48 48 48 60
 67 67 67 76 76 102 102 102 102 102 34 34 34 34 34 34 34 34 34 34
 70 48 84 48 67 67 67 67 76 76 76 102 102 102 102 34 34 34 34 34
 34 34 34 34 70 70 70 70 70 67 67 76 76 76 76 76 76 102 102 102
 34 34 34 34 34 57 34 34 70 70 70 70 70 70 76 76 76 76 76 76
 76 76 76 102 102 57 57 57 57 57 57 57 57 70 14 14 14 14 64 76
 76 76 76 76 76 76 76 76 102 57 57 57 57 57 57 57 57 57 14 14
 14 14 14 64 64 64 76 76 76 76 76 76 76 82 82 57 57 57 57 57
 57 57 57 14 14 14 14 14 64 64 64 76 76 76 76 76 76 82 82 82
 82 57 57 57 57 57 57 14 14 14 14 14 64 64 64 64 76 76 76 76
 76 76 13 82 82 13 13 57 57 57 57 57 14 14 14 14 14 64 64 64
 64 64 76 76 76 76 13 13 13 13 13 13 13 57 57 57 57 59 59 59
 59 59 59 64 64 64 64 76 76 76 76 13 13 13 13 13 13 13 57 57
 57 59 59 59 59 59 59 59 59 64 64 64 76 76 76 13 13 13 13 13
 13 13 13 13 57 59 59 59 59 59 59 59 59 59 59 68 68 68 76 13
 13 13 13 13 13 13 13 45 45 45 59 59 59 59 59 59 59 59 59 59
 68 68 68 68 68 13 13 45 45 45 45 45 45 45 45 39 69 69 69 69
 69 69 69 69 69 68 68 68 68 68 45 45 45 45 45 45 45 45 45 45
 39 39 69 69 69 69 69 69 69 69 68 68 68 68 45 45 45 45 45 45
 45 45 45 45 45 39 39 39 69 69 69 69 69 69 69 89 89 89 68 45
 45 45 45 45 45 45 45 45 45 45 39 39 39 39 69 69 69 69 69 69
 89 89 89 68 45 45 45 45 45 45 45 45 45 45 39 39 39 39 39 24
 24 24 24 24 49 49 49 16 16 16 16 45 45 45 45 45 45 45 45 39
 39 39 39 39 24 24 24 24 24 49 49 49 16 16 16 16 16 45 45 45
 45 45 45 45 39 11 11 11 39 24 24 24 24 24 72 72 72 72 72 16
 16 16 45 45 45 45 100 34 34 11 11 11 11 11 24 24 24 24 48 48
 72 72 72 72 72 72 72 102 102 102 34 100 34 34 34 34 11 11 11 11
 24 24 48 48 48 72 72 72 72 72 72 102 102 102 102 102 34 34 34 34
 34 8 8 8 8 48 48 48 48 48 72 72 72 72 72 72 102 102 102 102
 102 34 34 34 34 34 34 8 8 8 32 32 32 32 32 67 67 67 67 91
 102 102 102 102 102 102 34 34 34 34 34 34 34 8 8 32 32 32 32 32
 67 67 67 67 67 102 102 102 102 102 102 34 34 34 34 34 34 34 34 34
 32 32 32 32 67 67 67 67 67 67 102 102 102 102 102 102 34 34 34 34
 34 34 34 34 34 84 84 84 84 67 67 67 67 67 67 67 102 102 102 102
 102 34 34 34 34 34 34 34 34 34 70 70 84 84 67 67 67 67 67 67
 76 102 102 102 102 102 34 34 34 34 57 34 34 34 34 70 70 84 70 67
 67 67 67 76 76 76 76 102 102 102 57 57 57 57 57 57 57 57 57 14
 14 14 14 64 64 76 76 76 76 76 76 76 76 102 102 57 57 57 57 57
 57 57 57 14 14 14 14 14 64 64 64 76 76 76 76 76 76 82 82 82
 57 57 57 57 57 57 57 57 14 14 14 14 14 64 64 64 76 76 76 76
 76 76 82 82 82 82 57 57 57 57 57 57 57 14 14 14 14 64 64 64
 64 76 76 76 76 76 50 13 82 82 82 13 57 57 57 57 57 57 14 14
 14 59 64 64 64 64 64 76 76 76 50 50 13 13 13 13 13 13 57 57
 57 57 59 59 59 59 59 59 64 64 64 71 71 71 71 50 50 13 13 13
 13 13 13 57 57 57 59 59 59 59 59 59 59 59 64 64 71 71 71 50
 50 50 13 13 13 13 13 13 57 57 59 59 59 59 59 59 59 59 59 59
 68 68 68 71 71 50 13 13 13 13 13 13 13 13 13 59 59 59 59 59
 59 59 59 59 68 68 68 68 68 68 50 13 13 13 13 45 45 45 45 45
 69 69 69 69 69 69 69 69 69 68 68 68 68 68 68 68 45 45 45 45
 45 45 45 45 45 39 69 69 69 69 69 69 69 69 68 68 68 68 68 68
 45 45 45 45 45 45 45 45 45 45 39 39 69 69 69 69 69 69 69 68
 89 89 89 68 68 45 45 45 45 45 45 45 45 45 45 39 39 39 39 24
 24 24 69 69 68 89 89 89 68 68 45 45 45 45 45 45 45 45 45 39
 39 39 39 24 24 24 24 24 24 49 49 49 16 16 16 16 16 45 45 45
 45 45 45 45 39 39 39 39 24 24 24 24 24 24 49 49 49 16 16 16
 16 16 45 45 45 45 100 100 100 39 11 11 11 24 24 24 24 24 24 49
 49 49 16 16 16 16 16 102 102 100 100 100 100 34 34 34 11 11 11 24
 24 24 24 24 49 49 72 72 72 16 16 16 102 102 102 100 100 100 34 34
 34 34 11 11 24 24 24 24 32 48 72 72 72 72 72 72 102 102 102 102
 100 100 34 34 34 34 34 34 8 8 32 32 32 32 32 72 72 72 72 72
 102 102 102 102 102 102 34 34 34 34 34 34 34 8 8 32 32 32 32 32
 67 67 67 67 67 102 102 102 102 102 102 34 34 34 34 34 34 34 34 34
 32 32 32 32 32 67 67 67 67 67 102 102 102 102 102 102 34 34 34 34
 34 34 34 34 34 32 32 32 32 67 67 67 67 67 67 67 102 102 102 102
 102 34 34 34 34 34 34 34 34 34 84 84 84 84 67 67 67 67 67 67
 67 102 102 102 102 102 34 34 34 34 34 34 34 34 34 84 84 84 67 67
 67 67 67 67 67 67 102 102 102 102 102 34 34 34 34 57 34 34 34 7
 84 84 84 67 67 67 67 67 67 67 67 102 102 102 102 102 57 57 57 57
 57 57 57 57 7 98 98 14 64 67 67 67 67 67 76 76 76 102 102 102
 57 57 57 57 57 57 57 57 57 14 14 14 14 64 64 67 67 76 76 76
 76 76 50 82 82 57 57 57 57 57 57 57 57 14 14 14 14 14 64 64
 64 71 76 76 76 76 50 50 82 82 82 57 57 57 57 57 57 57 14 14
 14 14 64 64 64 64 71 71 71 71 50 50 50 82 82 82 57 57 57 57
 57 57 57 59 59 59 59 59 64 64 71 71 71 71 71 50 50 50 13 13
 13 13 13 57 57 57 57 59 59 59 59 59 59 59 64 71 71 71 71 71
 50 50 50 13 13 13 13 13 57 57 57 59 59 59 59 59 59 59 59 68
 68 71 71 71 71 50 50 50 13 13 13 13 13 13 57 59 59 59 59 59
 59 59 59 59 68 68 68 68 71 71 50 50 13 13 13 13 13 13 13 13
 59 59 59 59 59 59 59 59 59 68 68 68 68 68 68 50 50 13 13 13
 13 13 45 45 45 69 69 69 69 69 69 69 69 68 68 68 68 68 68 68
 68 45 45 45 45 45 45 45 45 45 69 69 69 69 69 69 69 69 68 68
 68 89 68 68 68 68 45 45 45 45 45 45 45 45 45 39 39 36 36 69
 69 69 69 68 68 89 89 89 68 68 68 45 45 45 45 45 45 45 45 45
 39 39 36 36 24 24 24 69 68 68 89 89 89 68 68 68 45 45 45 45
 45 45 45 45 39 39 39 36 24 24 24 24 24 24 49 49 49 49 16 16
 16 16 45 45 45 45 45 100 100 39 39 39 36 24 24 24 24 24 24 49
 49 49 49 16 16 16 16 16 45 100 100 100 100 100 39 11 11 11 24 24
 24 24 24 24 49 49 49 16 16 16 16 16 102 100 100 100 100 100 100 34
 34 34 11 24 24 24 24 24 24 49 49 16 16 16 16 16 102 102 102 100
 100 100 100 34 34 34 34 34 24 24 24 24 24 24 49 72 72 72 16 16
 16 102 102 102 102 100 100 100 34 34 34 34 34 34 24 24 24 24 32 97
 72 67 72 72 72 102 102 102 102 102 102 102 34 34 34 34 34 34 34 34
 32 32 32 32 32 67 67 67 67 67 102 102 102 102 102 102 102 34 34 34
 34 34 34 34 34 32 32 32 32 67 67 67 67 67 67 67 102 102 102 102
 102 102 34 34 34 34 34 34 34 34 32 32 32 32 67 67 67 67 67 67
 67 102 102 102 102 102 102 34 34 34 34 34 34 34 34 84 84 84 84 67
 67 67 67 67 67 67 102 102 102 102 102 102 34 34 34 34 34 34 34 34
 84 84 84 84 67 67 67 67 67 67 67 67 102 102 102 102 102 34 34 34
 57 34 34 7 7 84 84 84 3 67 67 67 67 67 67 67 67 102 102 102
 102 57 57 57 57 57 57 7 7 7 98 98 3 3 67 67 67 67 67 67
 67 67 102 102 102 57 57 57 57 57 57 57 57 7 98 98 98 98 3 67
 67 67 67 67 67 67 50 50 50 82 57 57 57 57 57 57 57 7 7 7
 98 98 98 64 64 71 71 71 71 71 71 50 50 50 82 82 57 57 57 57
 57 57 7 7 7 59 98 64 64 71 71 71 71 71 71 71 50 50 50 82
 13 57 57 57 57 57 57 7 59 59 59 59 59 64 71 71 71 71 71 71
 50 50 50 50 13 13 13 13 57 57 57 78 78 59 59 59 59 59 59 71
 71 71 71 71 71 50 50 50 50 13 13 13 13 57 57 78 78 78 78 78
 59 59 78 78 68 68 71 71 71 71 50 50 50 50 13 13 13 13 13 57
 78 78 78 78 78 78 78 78 78 68 68 68 68 71 71 50 50 50 13 13
 13 13 13 13 13 78 78 78 78 78 78 78 78 68 68 68 68 68 68 68
 50 50 50 13 13 13 13 13 13 13 36 36 36 36 78 69 78 78 68 68
 68 68 68 68 68 68 50 50 45 45 45 45 45 45 45 36 36 36 36 36
 69 69 69 68 68 68 89 68 68 68 68 50 45 45 29 45 45 45 45 45
 36 36 36 36 36 36 36 69 68 68 89 89 89 68 68 68 45 45 29 29
 29 45 45 45 45 36 36 36 36 36 24 24 24 68 68 89 89 89 16 16
 68 45 45 45 29 45 45 45 45 39 92 36 36 36 24 24 24 24 24 49
 49 49 49 16 16 16 16 45 29 29 100 100 100 100 92 92 92 36 36 24
 24 24 24 24 49 49 49 49 16 16 16 16 16 45 100 100 100 100 100 92
 92 92 92 24 24 24 24 24 24 49 49 49 16 16 16 16 16 102 102 100
 100 100 100 100 92 92 92 92 92 24 24 24 24 24 49 49 16 16 16 16
 16 102 102 102 100 100 100 100 31 31 31 92 92 92 24 24 24 24 97 97
 93 93 16 16 16 16 102 102 102 102 100 100 100 31 31 34 34 92 92 92
 24 32 32 97 97 97 67 67 16 83 83 83 102 102 102 102 102 31 31 31
 34 34 34 34 32 32 32 32 32 97 97 67 67 67 67 83 83 83 102 102
 102 102 34 34 34 34 34 34 34 32 32 32 32 32 97 67 67 67 67 67
 83 83 83 102 102 102 102 34 34 34 34 34 34 34 32 32 32 32 32 97
 67 67 67 67 67 67 83 83 102 102 102 102 34 34 34 34 34 34 34 34
 84 84 84 84 67 67 67 67 67 67 67 83 102 102 102 102 102 34 34 34
 34 34 34 7 7 3 3 3 3 67 67 67 67 67 67 67 67 102 102 102
 102 102 34 34 34 57 55 7 7 7 3 3 3 3 67 67 67 67 67 67
 67 67 102 102 102 102 102 57 57 57 57 55 7 7 7 98 3 3 3 67
 67 67 67 67 67 67 67 102 102 102 102 57 57 57 57 57 55 7 7 98
 98 98 3 3 67 67 67 67 67 67 67 67 50 50 82 57 57 57 57 57
 57 55 7 7 7 98 98 98 3 71 71 71 71 71 71 71 50 50 50 82
 82 57 57 95 57 57 7 7 7 7 98 98 98 64 71 71 71 71 71 71
 71 50 50 50 50 13 57 95 95 95 57 7 7 7 78 78 78 78 78 71
 71 71 71 71 71 71 50 50 50 50 13 13 95 95 95 78 78 78 78 78
 78 78 78 78 71 71 71 71 71 71 71 50 50 50 50 13 13 13 95 95
 78 78 78 78 78 78 78 78 78 68 71 71 71 71 71 71 50 50 50 13
 13 13 13 13 95 78 78 78 78 78 78 78 78 78 68 68 68 68 71 71
 71 50 50 50 13 13 13 13 13 13 78 78 78 78 78 78 78 78 68 68
 68 68 68 68 68 71 50 50 13 13 13 13 13 13 13 36 36 36 36 78
 78 78 78 68 68 68 68 68 68 68 68 68 50 13 29 29 29 45 45 45
 36 36 36 36 36 36 78 68 68 68 68 68 68 68 68 68 68 29 29 29
 29 29 45 45 45 36 36 36 36 36 36 36 68 68 68 68 89 68 68 68
 68 68 29 29 29 29 29 29 29 29 36 36 36 36 36 36 24 24 68 68
 68 89 89 68 68 68 68 29 29 29 29 29 45 45 39 92 36 36 36 36
 24 24 24 24 68 68 68 16 16 16 16 96 96 29 29 29 100 100 92 92
 92 92 92 36 36 24 24 24 24 49 49 49 16 16 16 16 96 96 96 29
 100 100 100 92 92 92 92 92 92 24 24 24 24 24 49 49 49 16 16 16
 96 96 96 96 100 100 100 31 31 92 92 92 92 92 24 24 24 24 93 93
 93 93 16 16 16 96 96 96 96 100 100 31 31 31 31 92 92 92 92 92
 24 24 97 97 93 93 93 93 93 16 96 96 96 102 102 102 31 31 31 31
 31 92 92 92 92 97 97 97 97 97 93 93 93 93 93 83 83 83 102 102
 102 31 31 31 31 31 31 92 92 92 97 97 97 97 97 97 93 67 67 67
 83 83 83 83 102 102 102 31 31 31 31 31 31 92 97 97 97 97 97 97
 97 67 67 67 67 83 83 83 83 102 102 102 31 31 31 34 34 34 7 97
 97 97 97 97 97 67 67 67 67 67 67 83 83 83 102 102 102 102 31 31
 34 34 7 7 7 3 3 3 97 97 67 67 67 67 67 67 83 83 83 102
 102 102 102 34 34 34 55 7 7 7 3 3 3 3 67 67 67 67 67 67
 67 67 102 102 102 102 102 102 34 34 55 55 7 7 7 3 3 3 3 3
 67 67 67 67 67 67 67 102 102 102 102 102 73 73 73 55 55 7 7 7
 98 3 3 3 3 67 67 67 67 67 67 67 102 102 102 102 73 73 73 73
 55 55 7 7 98 98 98 3 3 3 67 67 67 67 71 71 71 50 50 102
 73 73 73 73 73 55 55 7 7 7 98 98 3 3 3 71 71 71 71 71
 71 71 50 50 50 95 95 95 95 95 55 7 7 7 7 7 37 78 3 71
 71 71 71 71 71 71 71 50 50 50 13 95 95 95 95 55 7 7 7 78
 37 37 78 78 71 71 71 71 71 71 71 50 50 50 50 13 13 95 95 95
 78 78 78 78 78 78 78 78 78 71 71 71 71 71 71 71 50 50 50 50
 13 13 95 95 95 78 78 78 78 78 78 78 78 78 68 71 71 71 71 71
 71 50 50 50 13 13 13 13 95 95 78 78 78 78 78 78 78 78 78 68
 68 68 68 71 71 71 50 50 50 13 13 13 13 13 95 36 36 36 78 78
 78 78 78 68 68 68 68 68 68 68 71 50 50 13 13 13 13 13 58 58
 36 36 36 36 78 78 78 78 68 68 68 68 68 68 68 68 68 50 29 29
 29 29 29 58 58 36 36 36 36 36 36 78 68 68 68 68 68 68 68 68
 68 68 29 29 29 29 29 29 29 58 36 36 36 36 36 36 36 68 68 68
 68 68 68 68 68 68 29 29 29 29 29 29 29 29 29 36 36 36 36 36
 36 36 68 68 68 68 68 68 68 68 68 29 29 29 29 29 29 29 29 29
 92 92 36 36 36 36 24 24 24 68 68 68 16 16 16 96 96 96 96 29
 22 22 31 92 92 92 92 92 36 36 36 24 24 46 93 49 49 16 16 16
 96 96 96 96 96 31 31 31 31 92 92 92 92 92 92 24 24 24 93 93
 93 93 16 16 16 96 96 96 96 96 31 31 31 31 92 92 92 92 92 92
 24 24 24 93 93 93 93 93 93 16 96 96 96 96 96 31 31 31 31 31
 92 92 92 92 92 92 24 97 97 93 93 93 93 93 93 96 96 96 96 96
 31 31 31 31 31 31 92 92 92 92 92 97 97 97 97 93 93 93 93 93
 83 83 83 83 102 31 31 31 31 31 31 31 92 92 92 97 97 97 97 97
 97 93 93 93 67 83 83 83 83 102 102 31 31 31 31 31 31 92 92 97
 97 97 97 97 97 97 97 67 67 67 83 83 83 83 102 102 31 31 31 31
 31 31 31 7 97 97 97 97 97 97 97 67 67 67 67 67 83 83 83 102
 102 102 31 31 31 34 34 7 7 3 3 3 97 97 97 97 67 67 67 67
 67 27 83 83 102 102 102 31 31 31 55 7 7 7 7 3 3 3 3 3
 67 67 67 67 67 67 27 27 102 102 102 102 31 31 31 55 55 7 7 7
 3 3 3 3 3 67 67 67 67 67 67 27 27 102 102 102 73 73 73 73
 55 55 7 7 7 7 3 3 3 3 67 67 67 67 67 67 27 27 102 102
 73 73 73 73 73 55 55 7 7 7 98 3 3 3 3 67 67 67 71 71
 71 71 50 50 73 73 73 73 73 73 55 55 7 7 7 7 7 3 3 3
 71 71 71 71 71 71 71 50 50 50 73 73 73 73 73 55 7 7 7 7
 37 37 37 37 71 71 71 71 71 71 71 71 50 50 50 95 95 95 95 95
 55 7 7 7 37 37 37 37 37 6 6 71 71 71 71 71 71 50 50 50
 13 86 86 95 86 86 7 78 78 37 37 37 78 78 6 6 6 71 71 71
 71 71 50 50 50 13 86 86 86 86 86 78 78 78 78 78 78 78 78 6
 6 6 71 71 71 71 71 50 50 13 13 86 86 86 86 78 78 78 78 78
 78 78 78 78 68 68 68 71 71 71 71 71 50 50 13 13 13 86 86 86
 36 36 36 78 78 78 78 78 68 68 68 68 68 68 68 71 71 22 22 22
 13 22 58 58 58 36 36 36 15 15 78 78 78 68 68 68 68 68 68 68
 68 68 22 29 29 29 29 58 58 58 36 36 36 36 36 36 78 68 68 68
 68 68 68 68 68 68 22 22 29 29 29 29 29 58 58 36 36 36 36 36
 36 36 68 68 68 68 68 68 68 68 68 22 22 29 29 29 29 29 29 58
 36 36 36 36 36 36 36 68 68 68 68 68 68 68 68 22 22 22 29 29
 29 29 29 29 58 92 92 36 36 36 36 24 46 46 46 46 46 46 16 22
 22 22 22 22 22 22 22 31 92 92 92 92 92 92 36 36 24 46 46 46
 46 93 46 16 96 96 96 96 96 22 22 31 31 31 92 92 92 92 92 92
 92 24 46 46 46 46 93 93 93 96 96 96 96 96 96 31 31 31 31 92
 92 92 92 92 92 92 74 74 74 74 93 93 93 93 93 96 96 96 96 96
 31 31 31 31 31 92 92 92 92 92 92 74 74 74 74 93 93 93 93 93
 96 96 96 96 96 31 31 31 31 31 31 92 92 92 92 92 97 97 97 97
 93 93 93 93 93 96 96 96 96 31 31 31 31 31 31 31 31 92 92 92
 97 97 97 97 97 97 93 93 93 27 83 83 83 83 102 31 31 31 31 31
 31 31 92 92 92 97 97 97 97 97 97 97 93 67 27 27 83 83 83 102
 31 31 31 31 31 31 31 31 92 92 97 97 97 97 97 97 97 67 67 27
 27 27 83 83 102 102 31 31 31 31 31 31 7 7 3 3 3 3 97 97
 97 67 67 67 27 27 27 27 83 102 102 102 31 31 31 55 7 7 7 7
 3 3 3 3 3 67 67 67 67 27 27 27 27 27 102 102 102 31 31 31
 55 55 7 7 7 3 3 3 3 3 3 67 67 67 27 27 27 27 27 102
 102 73 73 73 55 55 55 7 7 7 7 3 3 3 3 3 67 67 67 27
 27 27 27 27 73 73 73 73 73 73 55 55 7 7 7 7 3 3 3 3
 3 67 67 67 27 27 27 27 27 73 73 73 73 73 73 55 55 7 7 7
 7 7 3 3 3 6 71 71 71 71 71 71 50 50 86 86 86 73 73 73
 86 55 7 7 7 37 37 37 37 6 6 71 71 71 71 71 71 50 50 86
 86 86 86 86 86 86 7 7 7 37 37 37 37 37 6 6 6 6 71 71
 71 71 50 50 86 86 86 86 86 86 86 7 78 37 37 37 37 37 78 6
 6 6 6 71 71 71 71 50 50 50 86 86 86 86 86 86 78 78 78 37
 37 37 78 78 6 6 6 71 71 71 71 71 50 50 22 86 86 86 86 86
 86 78 78 78 78 78 78 78 78 68 68 68 71 71 71 71 71 22 22 22
 22 86 86 86 86 36 36 15 15 15 78 78 78 68 68 68 68 68 68 68
 71 22 22 22 22 22 22 58 58 58 36 36 15 15 15 78 78 78 68 68
 68 68 68 68 68 22 22 22 22 22 22 22 58 58 58 36 36 36 15 15
 36 78 68 68 68 68 68 68 68 68 22 22 22 22 22 22 22 22 58 58
 36 36 36 36 36 36 36 68 68 68 68 68 68 68 68 22 22 22 22 22
 22 22 22 58 58 36 36 36 36 36 36 36 68 68 68 68 68 68 68 22
 22 22 22 22 22 22 22 22 22 58 92 92 92 36 36 36 46 46 46 46
 46 46 46 46 22 22 22 22 22 22 22 22 22 31 92 92 92 92 92 92
 92 46 46 46 46 46 46 46 46 22 22 22 96 22 22 22 22 31 31 92
 92 92 92 92 92 92 46 46 46 46 46 46 46 46 96 96 96 96 96 96
 31 31 31 31 92 92 92 92 92 92 92 74 74 74 74 46 46 46 46 46
 96 96 96 96 96 31 31 31 31 31 92 92 92 92 92 92 74 74 74 74
 74 93 93 93 93 96 96 96 96 96 31 31 31 31 31 31 92 92 92 92
 74 74 74 74 74 74 93 93 93 30 30 30 30 30 30 31 31 31 31 31
 31 31 92 92 92 97 97 97 74 97 97 93 93 93 27 27 30 30 30 30
 31 31 31 31 31 31 31 92 92 92 97 97 97 97 97 97 97 93 27 27
 27 27 30 30 30 31 31 31 31 31 31 31 31 92 97 97 97 97 97 97
 97 97 27 27 27 27 27 27 30 30 30 31 31 31 31 31 31 7 7 3
 3 3 97 97 97 97 97 27 27 27 27 27 27 27 30 30 31 31 31 31
 55 7 7 7 7 3 3 3 3 3 97 67 27 27 27 27 27 27 27 30
 30 31 31 73 81 55 55 7 7 7 3 3 3 3 3 3 67 27 27 27
 27 27 27 27 27 27 73 73 73 73 55 55 7 7 7 7 3 3 3 3
 3 67 27 27 27 27 27 27 27 27 73 73 73 73 73 55 55 7 7 7
 7 3 3 3 3 3 67 67 27 27 27 27 27 27 73 73 73 73 73 73
 55 55 7 7 7 7 7 3 3 3 6 6 71 71 71 71 27 27 50 86
 86 86 86 86 86 86 55 7 7 7 37 37 37 37 6 6 6 71 71 71
 71 71 50 86 86 86 86 86 86 86 86 7 7 7 37 37 37 37 37 6
 6 6 6 71 71 71 71 50 86 86 86 86 86 86 86 86 7 7 37 37
 37 37 37 78 6 6 6 6 71 71 71 71 50 2 2 86 86 86 86 86
 86 78 78 37 37 37 37 78 78 6 6 6 6 71 71 71 71 22 22 22
 86 86 86 86 86 54 54 78 78 37 37 78 78 78 68 68 68 71 71 71
 71 22 22 22 22 22 86 86 86 86 54 54 15 15 15 78 78 78 68 68
 68 68 68 68 68 22 22 22 22 22 22 22 58 58 58 54 54 15 15 15
 78 78 68 68 68 68 68 68 68 68 22 22 22 22 22 22 22 58 58 58
 36 36 15 15 15 15 78 68 68 68 68 68 68 68 22 22 22 22 22 22
 22 22 58 58 58 36 36 36 36 36 36 36 68 68 68 68 68 68 68 22
 22 22 22 22 22 22 22 22 58 58 36 36 36 36 36 36 36 68 68 68
 68 68 68 68 22 22 22 22 22 22 22 22 22 22 58 92 92 92 36 36
 63 46 46 46 46 46 46 46 46 22 22 22 22 22 22 22 22 22 31 92
 92 92 92 92 92 63 46 46 46 46 46 46 46 46 22 22 22 22 22 22
 22 22 31 31 92 92 92 92 92 92 92 46 46 46 46 46 46 46 46 46
 96 96 96 96 22 22 31 31 31 92 92 92 92 92 92 92 74 74 74 74
 46 46 46 46 46 96 96 96 96 96 31 31 31 31 31 92 92 92 92 92
 74 74 74 74 74 74 46 46 46 46 30 30 30 30 30 31 31 31 31 31
 31 92 92 92 92 74 74 74 74 74 74 74 46 46 30 30 30 30 30 30
 31 31 31 31 31 31 31 92 92 92 74 74 74 74 74 74 74 46 27 27
 30 30 30 30 30 30 31 31 31 31 31 31 92 92 92 74 74 74 74 97
 97 97 27 27 27 27 30 30 30 30 30 31 31 31 31 31 31 92 7 7
 97 97 97 97 97 97 97 27 27 27 27 27 30 30 30 30 30 31 31 31
 31 31 7 7 7 3 87 87 97 97 97 97 27 27 27 27 27 27 30 30
 30 30 31 81 81 81 7 7 7 7 3 87 87 87 87 97 67 27 27 27
 27 27 27 27 30 30 81 81 81 81 81 55 7 7 7 87 87 87 87 87
 87 27 27 27 27 27 27 27 27 30 30 81 81 81 81 55 55 7 7 7
 7 87 87 87 87 87 27 27 27 27 27 27 27 27 30 86 86 86 86 86
 55 55 7 7 7 7 87 87 87 87 87 27 27 27 27 27 27 27 27 86
 86 86 86 86 86 86 55 7 7 7 7 7 87 87 87 6 6 71 71 71
 27 27 27 27 86 86 86 86 86 86 86 86 7 7 7 7 37 37 87 6
 6 6 71 71 71 71 71 2 2 86 86 86 86 86 86 86 86 7 7 37
 37 37 37 37 6 6 6 6 71 71 71 71 2 2 2 86 86 86 86 86
 86 86 7 37 37 37 37 37 78 6 6 6 6 71 71 71 71 2 2 2
 86 86 86 86 86 86 86 54 37 37 37 37 78 78 6 6 6 6 71 71
 71 22 22 22 2 86 86 86 86 86 54 54 54 54 37 37 37 78 78 68
 68 68 71 71 22 22 22 22 22 22 22 22 86 86 86 54 54 54 54 54
 78 78 78 68 68 68 68 68 68 22 22 22 22 22 22 22 22 58 58 58
 54 54 54 54 54 78 78 68 68 68 68 68 68 22 22 22 22 22 22 22
 22 22 58 58 58 54 54 54 54 54 54 78 68 68 68 68 68 68 22 22
 22 22 22 22 22 22 22 58 58 58 54 54 54 54 54 54 54 68 68 68
 68 42 42 22 22 22 22 22 22 22 22 22 22 58 58 54 36 36 36 36
 36 36 46 46 46 68 42 42 22 22 22 22 22 22 22 22 22 22 22 58
 92 92 92 36 63 63 63 46 46 46 46 46 46 46 22 22 22 22 22 22
 22 22 22 22 92 92 92 92 92 63 63 63 46 46 46 46 46 46 46 46
 22 22 22 22 22 22 22 22 31 92 92 92 92 92 92 63 46 46 46 46
 46 46 46 46 46 22 22 22 22 22 22 31 31 31 31 92 92 92 92 92
 92 74 74 46 46 46 46 46 46 46 46 30 30 30 30 31 31 31 31 31
 31 92 92 92 92 74 74 74 74 74 46 46 46 46 46 30 30 30 30 30
 30 31 31 31 31 31 92 92 92 92 74 74 74 74 74 74 46 46 46 30
 30 30 30 30 30 30 31 31 31 31 31 31 92 92 74 74 74 74 74 74
 74 46 46 46 30 30 30 30 30 30 30 31 31 31 31 31 31 92 92 74
 74 74 74 74 74 74 74 27 27 27 30 30 30 30 30 30 30 31 31 31
 31 31 92 7 7 87 87 97 97 97 97 97 27 27 27 27 30 30 30 30
 30 30 31 31 31 81 81 7 7 7 87 87 87 87 97 97 97 27 27 27
 27 27 30 30 30 30 30 81 81 81 81 81 7 7 7 87 87 87 87 87
 87 27 27 27 27 27 27 27 30 30 30 81 81 81 81 81 55 7 7 7
 87 87 87 87 87 87 27 27 27 27 27 27 27 30 30 30 81 81 81 81
 81 55 7 7 7 87 87 87 87 87 87 27 27 27 27 27 27 27 30 30
 81 81 81 81 81 86 55 7 7 7 7 87 87 87 87 87 28 28 28 28
 28 28 27 30 2 86 86 86 86 86 86 86 7 7 7 7 87 87 87 87
 87 28 28 28 28 28 28 28 2 2 86 86 86 86 86 86 86 7 7 7
 7 37 87 87 6 6 6 28 28 28 28 28 2 2 2 86 86 86 86 86
 86 86 7 7 37 37 37 37 37 6 6 6 6 71 28 28 2 2 2 2
 2 86 86 86 86 86 86 86 37 37 37 37 37 1 6 6 6 6 71 71
 28 2 2 2 2 2 86 86 86 86 86 54 54 54 37 37 37 78 1 1
 6 6 6 71 71 22 2 2 2 2 2 2 86 86 86 54 54 54 54 54
 37 37 1 1 1 1 6 71 71 22 22 22 22 22 22 2 2 2 86 54
 54 54 54 54 54 54 78 1 1 1 68 68 68 22 22 22 22 22 22 22
 22 22 58 58 54 54 54 54 54 54 54 54 68 68 42 42 42 42 22 22
 22 22 22 22 22 22 22 58 58 54 54 54 54 54 54 54 54 68 68 42
 42 42 42 22 22 22 22 22 22 22 22 22 58 58 54 54 54 54 54 54
 54 54 65 42 42 42 42 42 22 22 22 22 22 22 22 22 22 22 58 54
 54 54 54 54 54 54 46 46 46 46 42 42 42 22 22 22 22 22 22 22
 22 22 22 22 54 92 92 92 63 63 63 63 46 46 46 46 46 46 46 22
 22 22 22 22 22 22 22 22 22 22 92 92 92 63 63 63 63 46 46 46
 46 46 46 46 46 22 22 22 22 22 22 22 22 22 92 92 92 92 92 63
 63 63 46 46 46 46 46 46 46 46 46 22 22 22 22 22 22 31 31 31
 92 92 92 92 92 63 46 46 46 46 46 46 46 46 46 46 30 30 30 30
 30 31 31 31 31 31 92 92 92 92 74 74 74 74 46 46 46 46 46 46
 30 30 30 30 30 30 31 31 31 31 31 92 92 92 92 74 74 74 74 74
 46 46 46 46 30 30 30 30 30 30 30 30 31 31 31 31 31 92 21 53
 53 53 74 74 74 46 46 46 46 30 30 30 30 30 30 30 30 31 31 31
 31 31 21 21 53 53 53 53 74 74 74 46 46 27 30 30 30 30 30 30
 30 30 31 31 31 31 31 21 21 53 53 77 77 77 97 97 97 27 27 27
 30 30 30 30 30 30 30 31 81 81 81 81 7 7 77 77 77 77 77 77
 97 27 27 27 27 27 30 30 30 30 30 30 81 81 81 81 81 7 7 101
 87 87 87 87 87 87 27 27 27 27 27 27 30 30 30 30 81 81 81 81
 81 81 7 7 101 101 87 87 87 87 87 27 27 27 27 27 27 30 30 30
 30 81 81 81 81 81 81 7 7 7 87 87 87 87 87 87 28 28 28 28
 28 28 28 28 30 81 81 81 81 81 86 55 7 7 7 7 87 87 87 87
 28 28 28 28 28 28 28 28 28 2 86 86 86 86 86 86 86 7 7 7
 7 87 87 87 87 28 28 28 28 28 28 28 28 2 2 2 86 86 86 86
 86 86 7 7 7 85 85 85 87 1 28 28 28 28 28 28 28 2 2 2
 2 86 86 86 86 86 86 86 7 85 85 85 85 1 1 6 6 28 28 28
 28 2 2 2 2 2 2 86 86 86 86 54 54 85 85 85 85 85 1 1
 1 6 6 28 28 28 2 2 2 2 2 2 86 86 86 54 54 54 54 85
 85 85 1 1 1 1 6 6 71 2 2 2 2 2 2 2 2 2 86 86
 54 54 54 54 54 54 1 1 1 1 1 1 71 22 22 22 22 22 22 2
 2 2 2 54 54 54 54 54 54 54 54 54 1 1 1 1 68 22 22 22
 22 22 22 22 22 22 22 22 54 54 54 54 54 54 54 54 54 1 1 1
 42 42 42 22 22 22 22 22 22 22 22 22 22 54 54 54 54 54 54 54
 54 54 65 42 42 42 42 42 22 22 22 22 22 22 22 22 22 22 54 54
 54 54 54 54 54 54 65 65 42 42 42 42 42 22 22 22 22 22 22 22
 22 22 22 54 54 54 54 54 54 54 54 65 65 46 46 42 42 42 22 22
 22 22 22 22 22 22 22 22 22 54 41 41 41 63 63 63 63 46 46 46
 46 46 46 46 22 22 22 22 22 22 22 22 22 22 22 41 41 41 63 63
 63 63 46 46 46 46 46 46 46 46 22 22 22 22 22 22 22 75 22 92
 41 41 41 41 63 63 46 46 46 46 46 46 46 46 46 46 22 22 22 22
 22 75 75 31 31 75 41 92 92 21 63 46 46 46 46 46 46 46 46 46
 46 30 30 30 30 30 30 31 31 31 75 75 92 21 21 53 46 46 46 46
 46 46 46 46 46 30 30 30 30 30 30 30 31 31 31 75 92 21 21 21
 53 53 53 46 46 46 46 46 46 90 30 30 30 30 30 30 30 31 31 31
 31 21 21 21 53 53 53 53 53 46 46 46 46 90 90 90 30 30 30 30
 30 30 30 31 31 31 21 21 21 53 53 53 53 53 46 46 46 46 90 90
 90 30 30 30 30 30 30 30 31 31 81 21 21 21 53 53 53 53 53 53
 46 46 90 90 90 90 30 30 30 30 30 30 30 81 81 81 81 21 21 77
 77 77 77 77 77 77 90 90 90 90 30 30 30 30 30 30 30 81 81 81
 81 81 81 101 101 101 77 77 77 77 77 28 28 28 28 30 30 30 30 30
 30 81 81 81 81 81 81 81 101 101 101 101 77 77 77 28 28 28 28 28
 28 28 28 30 30 30 81 81 81 81 81 81 7 101 101 101 101 10 87 87
 28 28 28 28 28 28 28 28 28 28 81 81 81 81 81 86 55 7 101 101
 101 10 10 10 10 28 28 28 28 28 28 28 28 28 28 2 81 81 81 81
 86 86 7 7 7 101 10 10 10 10 28 28 28 28 28 28 28 28 2 2
 2 2 86 86 86 86 86 7 85 85 85 85 85 85 28 28 28 28 28 28
 28 28 2 2 2 2 2 86 86 86 86 86 85 85 85 85 85 85 85 1
 28 28 28 28 28 28 2 2 2 2 2 2 2 86 86 86 54 85 85 85
 85 85 85 85 1 1 28 28 28 28 28 2 2 2 2 2 2 2 86 86
 54 54 54 85 85 85 85 85 1 1 1 28 28 28 28 28 2 2 2 2
 2 2 2 2 54 54 54 54 54 85 85 85 1 1 1 1 1 22 22 22
 22 22 2 2 2 2 2 2 54 54 54 54 54 54 54 54 54 1 1 1
 1 1 22 22 22 22 22 22 22 22 22 2 2 54 54 54 54 54 54 54
 54 54 65 62 1 42 42 22 22 22 22 22 22 22 22 22 22 22 54 54
 54 54 54 54 54 54 65 65 65 42 42 42 42 22 22 22 22 22 22 22
 22 22 22 23 54 54 54 54 54 54 65 65 65 65 42 42 42 42 22 22
 22 22 22 22 22 22 22 23 23 23 54 54 54 54 54 65 65 65 65 46
 42 42 42 22 22 22 22 22 22 22 22 22 22 23 23 41 41 41 41 63
 63 63 46 46 46 46 46 46 46 22 22 22 22 22 22 22 22 22 75 75
 41 41 41 41 63 63 63 46 46 46 46 46 46 46 46 22 22 22 22 22
 22 75 75 75 75 41 41 41 41 63 63 46 46 46 46 46 46 46 46 46
 46 22 22 22 22 22 75 75 75 75 75 41 41 21 21 63 46 46 46 46
 46 46 46 46 46 46 30 30 30 30 75 75 75 75 75 75 75 21 21 21
 53 53 46 46 46 46 46 46 46 46 90 30 30 30 30 30 75 75 75 75
 75 21 21 21 21 53 53 53 53 46 46 46 46 46 90 90 90 30 30 30
 30 30 75 75 75 75 21 21 21 21 53 53 53 53 53 46 46 46 90 90
 90 90 30 30 30 30 30 30 75 75 21 21 21 21 21 53 53 53 53 53
 46 46 90 90 90 90 90 30 30 30 30 30 30 33 33 21 21 21 21 21