# vtk DataFile Version 2.0
Data set from IO Version 6.4.197.9a0dee2
ASCII

DATASET RECTILINEAR_GRID
DIMENSIONS 31 31 31
X_COORDINATES 31 float
-4.416667 4.416667 13.250000 22.083334 30.916666 39.749996 48.583332 57.416664 66.250000 75.083336 83.916664 92.750000 101.583336 110.416664 119.250000 128.083328 136.916656 145.749985 154.583328 163.416656 172.249985 
181.083328 189.916656 198.749985 207.583328 216.416656 225.249985 234.083313 242.916656 251.749985 260.583344 
Y_COORDINATES 31 float
-4.416667 4.416667 13.250000 22.083334 30.916666 39.749996 48.583332 57.416664 66.250000 75.083336 83.916664 92.750000 101.583336 110.416664 119.250000 128.083328 136.916656 145.749985 154.583328 163.416656 172.249985 
181.083328 189.916656 198.749985 207.583328 216.416656 225.249985 234.083313 242.916656 251.749985 260.583344 
Z_COORDINATES 31 float
-4.416667 4.416667 13.250000 22.083334 30.916666 39.749996 48.583332 57.416664 66.250000 75.083336 83.916664 92.750000 101.583336 110.416664 119.250000 128.083328 136.916656 145.749985 154.583328 163.416656 172.249985 
181.083328 189.916656 198.749985 207.583328 216.416656 225.249985 234.083313 242.916656 251.749985 260.583344 
CELL_DATA 27000
SCALARS FeatureIds int 1
LOOKUP_TABLE default
 58 58 58 58 125 125 125 125 273 229 229 229 142 142 142 29 29 29 29 386
 386 386 386 386 35 35 35 35 147 147 147 58 58 58 125 125 125 125 229 229
 229 229 396 396 396 29 29 29 29 386 386 386 386 386 35 35 35 147 147 147
 147 147 58 173 173 173 125 125 229 229 229 396 396 396 396 396 29 29 29 386
 386 386 386 386 105 105 105 105 400 400 400 400 173 173 173 173 173 107 107 229
 229 396 396 396 396 396 29 29 29 32 386 386 386 105 105 105 105 105 400 400
 400 172 172 173 173 173 173 144 144 88 88 396 396 396 396 396 30 30 30 122
 122 122 122 105 105 105 105 105 400 400 172 172 172 173 173 173 144 144 144 88
 88 286 286 396 396 30 30 30 30 122 122 122 122 105 105 105 105 105 400 400
 172 172 409 409 409 173 144 144 144 88 88 286 275 275 275 275 232 232 232 232
 122 122 122 122 105 105 34 34 34 351 48 48 409 409 409 173 144 144 144 88
 88 275 275 275 275 369 232 232 232 232 122 122 122 156 156 156 34 34 34 351
 48 48 48 409 409 293 293 293 293 293 119 119 275 275 275 369 369 232 232 232
 389 389 156 156 156 156 156 34 34 48 48 48 48 48 409 293 293 293 293 293
 119 119 275 275 275 369 369 369 232 198 389 389 328 328 156 156 156 156 34 48
 48 48 48 48 322 322 322 170 293 293 119 119 275 275 369 369 369 369 198 198
 198 389 328 328 328 156 402 402 402 48 48 48 48 48 322 322 170 170 170 170
 170 119 275 275 369 369 369 198 198 198 198 328 328 328 328 402 402 402 402 402
 31 31 31 31 322 170 170 170 170 170 170 170 275 275 369 369 369 198 198 198
 198 328 328 328 328 402 402 402 402 402 31 31 31 133 170 170 170 170 170 170
 170 170 372 38 38 38 38 38 198 198 175 328 328 328 148 148 148 402 402 31
 31 31 31 133 133 170 170 170 170 170 170 170 372 38 38 38 38 38 28 175
 175 175 148 148 148 148 148 148 261 261 31 31 31 133 133 133 170 170 170 170
 96 96 96 38 38 38 38 38 28 28 175 175 175 148 148 148 148 148 261 261
 31 31 31 133 133 133 170 170 170 96 96 96 96 96 38 38 38 38 28 28
 175 175 297 297 297 297 148 261 261 261 408 31 31 133 133 133 170 170 170 96
 96 96 96 96 38 38 270 270 270 28 175 175 297 297 297 297 406 406 408 408
 408 31 31 133 211 211 211 211 211 96 96 96 96 96 270 270 270 270 270 270
 175 297 297 297 297 297 406 406 406 408 61 61 61 211 211 211 211 211 211 279
 279 279 96 96 270 270 270 270 270 270 270 297 297 297 297 297 406 406 406 408
 61 61 61 211 211 211 211 211 211 53 279 279 383 383 270 270 270 270 270 270
 165 165 297 297 403 403 403 406 406 406 61 61 61 211 211 211 211 211 211 53
 53 279 383 383 383 270 270 270 270 270 43 202 202 202 403 403 403 406 406 61
 61 61 61 118 405 405 211 211 399 399 399 383 383 383 383 383 270 270 270 43
 43 202 202 202 202 403 403 411 411 411 411 307 118 118 405 405 405 399 399 399
 399 383 383 383 383 383 327 327 327 43 43 43 202 202 202 202 403 411 411 411
 307 307 7 7 405 405 405 399 399 399 399 383 383 383 383 383 327 327 327 43
 43 43 202 202 202 202 307 307 307 307 307 307 7 7 7 405 405 216 399 399
 399 383 383 383 383 327 327 327 327 327 226 226 226 202 202 202 307 307 307 307
 307 307 7 7 7 216 216 216 216 216 216 383 383 383 383 327 327 327 327 226
 226 226 226 226 202 358 358 307 307 307 307 58 58 58 7 216 216 216 216 216
 216 142 142 142 142 327 327 327 327 226 226 226 226 226 226 358 358 358 307 307
 58 58 58 58 58 216 216 216 216 216 216 142 142 142 142 142 327 327 327 226
 226 226 226 226 35 35 35 358 358 58 58 58 58 58 58 287 287 216 273 273
 273 142 142 142 142 142 142 89 89 226 226 226 226 226 35 35 35 35 358 58
 58 58 58 58 125 125 125 125 229 229 229 229 331 331 331 331 29 29 29 386
 386 386 386 386 35 35 35 35 147 147 147 58 58 125 125 125 125 125 229 229
 229 229 396 396 396 396 29 29 32 386 386 386 386 386 35 157 35 35 400 400
 400 400 284 284 125 125 125 107 229 229 229 396 396 396 396 396 29 32 32 32
 386 386 386 386 105 157 105 105 400 400 400 400 284 284 173 173 107 107 107 229
 229 396 396 396 396 396 30 30 32 32 32 386 386 105 105 105 105 105 400 400
 400 400 284 173 173 173 173 107 107 88 88 396 396 396 396 396 30 30 30 32
 32 122 122 105 105 105 105 105 400 400 351 172 172 173 173 173 173 144 88 88
 88 396 396 396 396 30 30 30 30 30 122 122 122 122 105 105 105 105 400 400
 351 351 409 409 409 173 293 293 88 88 88 88 275 275 275 30 30 30 30 30
 269 269 269 156 156 156 156 351 351 351 351 48 409 409 409 293 293 293 293 88
 88 275 275 275 275 275 30 30 30 30 269 269 269 156 156 156 156 156 351 351
 48 48 48 409 409 293 293 293 293 293 293 275 275 275 275 275 369 199 232 269
 269 269 269 156 156 156 156 156 351 351 48 48 48 48 293 293 293 293 293 293
 293 275 275 275 275 369 369 199 198 198 198 198 328 156 156 156 156 156 402 48
 48 48 48 48 322 322 322 293 293 293 293 275 275 275 275 369 369 369 198 198
 198 198 328 328 156 156 402 402 402 402 48 48 48 322 322 322 322 293 293 293
 293 275 275 275 369 369 369 198 198 198 198 198 328 328 328 402 402 402 402 402
 31 31 31 322 322 322 322 170 170 170 170 170 275 275 369 369 369 198 198 198
 198 198 328 148 148 148 402 402 402 402 31 31 31 31 170 170 170 170 170 170
 170 170 372 38 38 38 38 198 198 198 198 148 148 148 148 148 148 148 402 31
 31 31 31 31 133 170 170 170 170 170 170 96 372 38 38 38 38 38 28 28
 28 28 148 148 148 148 148 148 261 261 31 31 31 31 133 308 170 170 170 170
 96 96 96 38 38 38 38 38 28 28 28 28 148 148 148 148 148 148 261 261
 31 31 31 31 133 308 170 170 170 96 96 96 96 96 38 38 38 38 28 28
 28 28 318 318 318 148 148 261 261 261 31 31 31 31 133 308 211 211 96 96
 96 96 96 96 38 38 38 270 28 28 28 318 318 318 318 318 148 261 261 261
 31 31 31 31 211 211 211 211 211 96 96 96 96 96 270 270 270 270 270 28
 28 318 318 318 318 318 222 222 222 408 61 61 61 211 211 211 211 211 211 279
 279 279 67 67 270 270 270 270 270 270 165 165 165 165 318 222 222 222 222 222
 61 61 61 211 211 211 211 211 211 53 279 279 383 383 383 270 270 270 270 270
 165 165 165 165 403 403 403 222 222 222 61 61 61 211 211 211 211 211 211 399
 399 383 383 383 383 383 270 270 381 381 381 165 165 403 403 403 403 403 411 411
 61 61 61 211 211 211 211 211 399 399 399 383 383 383 383 383 383 381 381 381
 381 381 202 202 403 403 403 411 411 411 411 411 118 118 405 405 405 399 399 399
 399 383 383 383 383 383 383 381 381 381 381 381 57 202 202 202 403 411 411 411
 411 307 7 7 405 405 405 399 399 399 399 383 383 383 383 383 327 327 381 381
 381 57 57 57 202 202 307 307 411 411 307 307 7 7 7 216 216 216 399 399
 399 383 383 383 383 383 327 327 327 381 226 226 57 202 202 260 307 307 307 307
 307 307 7 7 216 216 216 216 216 216 216 383 383 383 383 383 327 327 327 226
 226 19 226 226 260 260 358 307 307 307 307 307 58 58 216 216 216 216 216 216
 216 216 331 331 331 331 327 327 327 226 226 226 226 226 35 35 358 307 307 307
 58 58 58 58 216 216 216 216 216 216 216 331 331 331 331 331 331 89 89 226
 226 226 226 226 35 35 35 35 13 13 58 58 58 58 125 125 125 216 216 216
 216 331 331 331 331 331 331 89 89 89 226 386 226 35 35 35 35 35 13 13
 13 13 58 125 125 125 125 125 125 229 229 120 331 331 331 331 331 89 89 89
 386 386 386 386 35 35 35 13 13 13 13 284 284 284 125 125 125 125 229 229
 229 120 120 331 331 331 331 32 32 32 386 386 386 386 157 157 157 13 13 400
 400 284 284 284 284 125 125 125 229 229 229 120 396 396 396 396 32 32 32 32
 32 386 386 386 157 157 157 157 400 400 400 284 284 284 284 284 125 107 107 229
 120 120 396 396 396 396 30 30 32 32 32 32 386 157 157 157 157 157 400 400
 400 284 284 284 284 284 173 107 107 88 88 396 396 396 396 30 30 30 30 32
 32 32 32 157 157 157 157 105 400 400 351 351 284 284 284 173 173 144 88 88
 88 88 396 396 396 30 30 30 30 30 32 269 269 269 157 157 157 351 351 351
 351 351 409 409 409 293 293 293 88 88 88 88 275 275 30 30 30 30 30 30
 269 269 269 269 156 156 156 351 351 351 351 351 409 409 409 293 293 293 293 293
 293 293 275 275 275 275 30 30 30 269 269 269 269 269 156 156 156 351 351 351
 351 48 48 409 409 293 293 293 293 293 293 275 275 275 275 275 199 199 199 269
 269 269 269 156 156 156 156 156 351 351 48 48 48 48 293 293 293 293 293 293
 293 275 275 275 275 275 199 199 199 198 269 269 269 156 156 156 156 156 402 48
 48 48 48 48 293 293 293 293 293 293 293 275 275 275 275 275 199 199 198 198
 198 198 148 148 148 156 402 402 402 402 48 48 48 48 322 322 293 293 293 293
 293 293 275 275 275 369 235 235 198 198 198 198 148 148 148 148 402 402 402 402
 31 31 31 322 322 322 322 293 293 293 293 293 275 275 275 235 235 235 198 198
 198 198 148 148 148 148 148 148 402 402 31 31 31 31 308 308 170 170 170 170
 170 170 9 38 38 38 235 235 235 198 198 148 148 148 148 148 148 148 148 261
 31 31 31 31 308 308 308 170 170 170 170 96 372 38 38 38 38 235 28 28
 28 28 148 148 148 148 148 148 261 261 31 31 31 31 308 308 308 170 170 170
 96 96 96 38 38 38 38 38 28 28 28 28 318 148 148 148 148 148 261 261
 31 31 31 31 308 308 308 308 170 96 96 96 96 38 38 38 38 38 28 28
 28 318 318 318 318 148 148 261 261 261 210 210 210 31 308 308 308 211 211 96
 96 67 67 96 365 365 365 365 28 28 28 318 318 318 318 318 148 319 261 261
 210 210 210 31 211 211 211 211 211 67 67 67 67 67 365 365 270 270 270 28
 318 318 318 318 318 318 319 319 319 319 210 61 61 211 211 211 211 211 211 67
 67 67 67 67 67 270 270 270 270 270 165 165 165 165 318 318 319 319 319 319
 61 61 61 211 211 211 211 211 211 211 67 67 67 383 383 270 270 270 270 381
 165 165 165 165 403 403 319 319 319 319 61 61 61 61 211 211 211 211 211 399
 399 383 383 383 383 383 270 381 381 381 381 165 165 165 403 403 403 403 411 411
 411 61 61 61 211 211 211 211 399 399 399 383 383 383 383 383 383 381 381 381
 381 381 57 57 403 403 403 411 411 411 411 61 61 61 211 211 211 399 399 399
 399 383 383 383 383 383 383 381 381 381 381 381 57 57 260 260 260 411 411 411
 411 411 411 7 405 216 216 399 399 399 399 383 383 383 383 383 383 381 381 381
 381 381 57 57 260 260 260 411 411 411 307 307 130 7 216 216 216 216 216 399
 399 383 383 49 383 383 383 381 381 381 381 19 57 260 260 260 260 307 307 307
 307 307 130 216 216 216 216 216 216 216 216 383 383 49 383 383 327 327 327 19
 19 19 19 19 260 260 260 307 307 307 13 13 58 216 216 216 216 216 216 216
 216 331 331 331 331 331 327 89 89 19 19 19 19 19 260 260 260 13 13 13
 13 13 58 216 216 216 216 216 216 216 216 331 331 331 331 331 331 89 89 19
 19 19 19 19 35 35 35 13 13 13 13 13 58 58 216 125 125 216 216 216
 216 331 331 331 331 331 331 89 89 89 19 19 19 19 35 35 35 13 13 13
 13 13 13 253 253 125 125 125 216 120 120 120 331 331 331 331 331 89 89 89
 104 333 104 104 35 35 35 13 13 13 13 13 284 284 253 125 125 125 125 120
 120 120 120 331 331 331 331 32 32 32 333 333 333 104 157 157 157 13 13 13
 313 284 284 284 284 253 125 125 120 120 120 120 120 120 396 331 32 32 32 32
 32 333 104 104 157 157 157 157 313 313 313 284 284 284 284 284 253 253 120 120
 120 120 120 396 396 30 30 30 32 32 32 32 104 157 157 157 157 157 313 313
 313 284 284 284 284 284 253 107 120 120 120 120 120 396 396 30 30 30 32 32
 32 32 32 157 157 157 157 157 313 313 351 284 284 284 284 284 293 293 88 88
 88 120 120 396 30 30 30 30 30 30 32 269 269 269 157 157 157 351 351 351
 351 351 409 409 293 293 293 293 293 293 293 131 131 275 30 30 30 30 30 30
 269 269 269 269 157 156 156 351 351 351 351 351 409 409 293 293 293 293 293 293
 293 293 275 275 275 30 30 30 30 269 269 269 269 269 156 156 156 351 351 351
 351 351 48 409 293 293 293 293 293 293 293 293 275 275 275 199 199 199 199 269
 269 269 269 269 156 156 156 351 351 351 48 48 48 48 293 293 293 293 293 293
 293 275 275 275 275 199 199 199 199 199 269 269 269 269 156 156 156 156 351 351
 48 48 48 48 293 293 293 293 293 293 293 293 275 275 275 199 199 199 199 198
 198 269 148 148 148 148 148 148 402 402 371 371 371 371 293 293 293 293 293 293
 293 293 289 275 235 235 235 235 235 198 198 198 148 148 148 148 148 148 148 402
 371 371 371 371 293 293 293 293 293 293 293 293 289 9 235 235 235 235 235 235
 235 148 148 148 148 148 148 148 148 402 31 31 31 308 308 308 308 170 170 293
 293 9 9 235 235 235 235 235 235 235 235 235 148 148 148 148 148 148 148 261
 31 31 31 308 308 308 308 308 170 250 250 250 9 9 235 235 235 235 235 235
 235 148 148 148 148 148 148 148 148 261 31 31 31 308 308 308 308 308 308 250
 250 250 365 365 365 38 235 235 235 235 28 318 318 148 148 148 148 148 261 261
 210 210 210 308 308 308 308 308 308 250 250 67 365 365 365 365 365 365 235 28
 28 318 318 318 318 318 148 148 261 261 210 210 210 210 308 308 308 308 308 67
 67 67 67 365 365 365 365 365 365 28 318 318 318 318 318 318 319 319 319 310
 210 210 210 210 211 211 211 211 211 67 67 67 67 67 365 365 365 365 365 365
 318 318 318 318 318 318 319 319 319 319 210 210 210 211 211 211 211 211 211 67
 67 67 67 67 365 12 12 12 12 115 115 165 165 318 318 319 319 319 319 319
 61 61 61 211 211 211 211 211 211 67 67 67 67 67 12 12 12 12 12 115
 115 165 165 165 403 319 319 319 319 319 61 61 61 61 211 211 211 211 211 399
 67 67 383 383 383 12 12 12 381 381 381 115 165 165 403 403 403 319 319 411
 411 61 61 61 211 211 211 211 399 399 399 383 383 383 383 383 12 381 381 381
 381 381 57 57 403 403 403 319 411 411 411 61 130 151 151 151 151 399 399 399
 399 383 383 383 383 383 381 381 381 381 381 381 57 57 260 260 260 411 411 411
 130 130 130 130 151 151 216 216 399 399 285 285 383 49 383 383 383 381 381 381
 381 381 57 260 260 260 260 260 411 411 130 130 130 130 216 216 216 216 216 216
 285 285 49 49 49 383 381 381 381 381 381 19 19 260 260 260 260 260 307 130
 130 130 130 130 216 216 216 216 216 216 285 285 285 49 49 49 200 381 381 19
 19 19 19 260 260 260 260 260 307 307 13 130 130 216 216 216 216 216 216 216
 216 285 331 331 331 331 89 89 89 19 19 19 19 19 260 260 260 260 13 13
 13 13 13 216 216 216 216 216 216 216 216 331 331 331 331 331 331 89 89 89
 19 19 19 19 35 35 35 13 13 13 13 13 13 253 253 216 216 216 216 216
 120 331 331 331 331 331 331 89 89 89 19 19 19 19 35 35 35 13 13 13
 13 13 253 253 253 253 253 253 216 120 120 120 120 331 331 331 331 89 89 104
 104 104 104 104 343 343 343 13 13 13 13 13 253 253 253 253 253 253 120 120
 120 120 120 120 120 331 123 123 123 123 104 104 104 104 343 343 343 343 13 13
 313 284 284 284 253 253 253 253 120 120 120 120 120 120 120 120 123 123 123 32
 104 104 104 104 157 157 157 157 313 313 313 284 284 284 284 253 253 253 120 120
 120 120 120 120 120 30 30 30 32 32 32 104 104 104 157 157 157 157 313 313
 313 284 284 284 284 284 253 253 120 120 120 120 120 120 120 30 30 30 32 32
 32 32 104 157 157 157 157 157 313 313 351 351 284 284 284 284 293 293 293 120
 120 120 120 120 30 30 30 30 30 30 32 269 269 269 157 157 157 16 351 351
 351 351 215 284 293 293 293 293 293 293 131 131 131 131 30 30 30 30 30 30
 269 269 269 269 231 231 16 16 351 351 351 351 215 215 293 293 293 293 293 293
 131 131 131 131 30 30 30 30 30 269 269 269 269 269 156 231 16 16 351 351
 351 351 215 293 293 293 293 293 293 293 293 131 131 275 289 199 199 199 199 269
 269 269 269 269 156 156 16 16 351 351 351 351 371 293 293 293 293 293 293 293
 293 131 289 289 289 199 199 199 199 199 269 269 269 269 156 156 156 193 351 351
 371 371 371 371 293 293 293 293 293 293 293 289 289 289 289 289 199 199 199 198
 269 269 148 148 148 148 148 193 193 371 371 371 371 371 293 293 293 293 293 293
 293 289 289 289 289 235 235 235 235 235 235 148 148 148 148 148 148 148 193 371
 371 371 371 371 293 293 293 293 293 293 60 289 289 9 235 235 235 235 235 235
 235 235 148 148 148 148 148 148 148 371 371 371 371 371 308 308 308 293 293 250
 250 9 9 9 9 235 235 235 235 235 235 235 148 148 148 148 148 148 148 371
 324 324 324 308 308 308 308 308 250 250 250 250 9 9 235 235 235 235 235 235
 235 235 148 148 148 148 148 148 148 261 324 324 324 308 308 308 308 308 250 250
 250 250 9 365 365 365 235 235 235 235 235 318 318 148 148 148 148 148 148 310
 310 324 210 210 308 308 308 308 250 250 250 250 250 365 365 365 365 365 235 235
 318 318 318 318 318 148 148 148 310 310 310 210 210 210 308 308 308 74 375 375
 250 67 67 365 365 365 365 365 365 365 318 318 318 318 318 318 148 319 310 310
 310 210 210 210 211 211 211 211 375 375 67 67 67 365 365 365 365 365 365 365
 318 318 318 318 318 318 319 319 310 310 184 184 184 184 211 211 211 211 375 375
 67 67 67 67 365 12 12 12 12 115 115 115 318 318 318 318 319 319 319 319
 184 184 184 184 211 211 211 211 375 375 67 67 67 67 12 12 12 12 12 115
 115 115 115 115 318 319 319 319 319 319 184 184 184 184 211 211 211 211 10 375
 67 67 67 383 12 12 12 12 12 381 115 115 115 115 115 403 319 319 319 184
 184 184 184 151 151 151 151 10 10 399 285 285 383 383 383 12 12 12 381 381
 381 115 115 115 79 79 79 79 411 411 130 130 130 151 151 151 151 151 399 399
 285 285 285 383 383 383 381 381 381 381 381 381 115 260 260 79 79 79 411 411
 130 130 130 130 151 151 151 216 216 285 285 285 285 285 383 383 381 381 381 381
 381 381 57 260 260 260 260 260 411 130 130 130 130 130 216 216 216 216 216 285
 285 285 285 49 49 49 200 381 381 381 381 19 19 260 260 260 260 260 251 130
 130 130 130 130 216 216 216 216 216 216 285 285 285 285 49 200 200 200 200 19
 19 19 19 260 260 260 260 251 251 251 130 130 130 130 216 216 216 216 216 216
 285 285 285 331 331 331 200 200 200 19 19 19 19 19 260 260 260 251 251 251
 13 13 130 216 216 216 216 216 216 216 120 120 331 331 331 331 200 89 89 19
 19 19 19 19 260 260 260 13 13 13 13 13 13 253 253 253 216 216 216 120
 120 120 331 331 331 331 200 89 89 89 104 104 104 104 343 35 13 13 13 13
 13 40 253 253 253 253 253 253 120 120 120 120 120 120 120 331 200 123 123 104
 104 104 104 104 343 343 343 397 397 13 13 253 253 253 253 253 253 253 120 120
 120 120 120 120 120 120 123 123 123 104 104 104 104 104 343 343 343 343 397 13
 313 253 253 253 253 253 253 253 120 120 120 120 120 120 120 120 123 123 123 123
 104 104 104 104 343 343 343 343 313 313 313 284 253 253 253 253 253 253 120 120
 120 120 120 120 120 30 30 30 32 32 104 104 104 104 343 343 343 343 313 313
 313 284 284 284 253 253 253 253 120 120 120 120 120 120 382 382 30 30 30 32
 32 32 104 104 231 231 231 16 313 313 351 215 215 284 1 253 1 293 180 120
 120 120 120 382 382 382 30 30 30 30 32 269 269 231 231 231 231 16 16 351
 351 215 215 215 1 1 1 293 293 293 131 131 131 382 382 382 30 30 30 30
 269 269 269 269 231 231 16 16 16 351 351 215 215 215 1 1 293 293 293 293
 131 131 131 131 382 382 30 30 30 30 269 269 269 269 231 231 16 16 16 351
 351 215 215 215 1 1 293 293 293 293 131 131 131 289 289 289 199 199 199 269
 269 269 269 269 231 231 16 16 16 351 371 371 371 371 293 293 293 293 293 293
 293 289 289 289 289 289 199 199 199 199 269 269 269 269 193 193 193 193 193 371
 371 371 371 371 293 293 293 293 293 293 293 289 289 289 289 289 235 235 235 235
 394 269 148 148 148 193 193 193 193 371 371 371 371 371 371 293 293 293 293 293
 60 289 289 289 289 235 235 235 235 235 235 148 148 148 148 148 193 193 193 371
 371 371 371 371 371 293 293 293 60 60 60 289 289 9 289 235 235 235 235 235
 235 235 148 148 148 148 148 193 193 371 371 371 371 371 371 308 293 293 60 60
 60 60 9 9 9 235 235 235 235 235 235 235 148 148 148 148 148 148 148 371
 324 324 324 371 308 308 308 60 60 250 250 250 9 9 9 235 235 235 235 235
 235 235 148 148 148 148 148 148 148 148 324 324 324 324 308 308 308 74 74 250
 250 250 106 365 365 365 235 235 235 235 235 235 148 148 148 148 148 148 148 310
 310 324 324 324 308 308 74 74 74 250 250 250 106 365 365 365 365 365 235 235
 235 318 318 318 318 148 148 148 310 310 310 310 210 210 308 308 74 74 74 375
 250 106 106 365 365 365 365 365 365 365 318 318 318 318 318 318 310 310 310 310
 310 310 210 25 25 74 74 74 375 375 375 106 106 365 365 365 365 365 365 278
 115 318 318 318 318 318 319 310 310 310 184 184 184 184 25 211 10 375 375 375
 375 67 67 365 365 365 12 12 12 115 115 115 115 318 318 387 319 319 319 310
 184 184 184 184 25 10 10 10 375 375 375 67 67 67 12 12 12 12 12 115
 115 115 115 115 115 387 319 319 319 310 184 184 184 184 184 10 10 10 10 10
 271 271 271 12 12 12 12 12 12 115 115 115 115 115 115 79 79 274 184 184
 184 184 184 184 151 151 151 10 10 10 271 271 271 271 12 12 12 12 381 381
 115 115 115 115 79 79 79 79 274 184 130 130 130 151 151 151 151 10 10 285
 285 285 285 285 238 238 238 381 381 381 381 115 115 115 79 79 79 79 130 130
 130 130 130 130 151 151 151 216 197 197 285 285 285 285 285 238 238 381 381 381
 381 381 115 260 260 79 79 260 130 130 130 130 130 130 216 216 216 216 197 197
 285 285 285 285 285 200 200 200 200 381 381 381 19 260 260 260 260 260 251 130
 130 130 130 130 216 216 216 216 216 285 285 285 285 285 285 200 200 200 200 200
 19 19 19 260 260 260 260 251 251 251 251 130 130 130 216 216 216 216 216 216
 285 285 285 285 331 200 200 200 200 200 19 19 19 19 260 260 260 251 251 251
 251 130 130 216 216 216 216 216 216 216 120 120 120 331 331 200 200 200 200 200
 19 19 19 19 260 397 397 397 251 251 13 13 253 253 253 253 253 216 216 120
 120 120 120 120 331 200 200 200 200 104 104 104 104 104 343 343 397 397 397 13
 40 40 40 40 253 253 253 253 120 120 120 120 120 120 120 200 200 200 200 104
 104 104 104 343 343 343 343 397 397 397 75 40 40 253 253 253 253 253 120 120
 120 120 120 120 120 120 200 123 123 104 104 104 104 343 343 343 343 343 397 397
 75 253 253 253 253 253 253 253 120 120 120 120 120 120 120 120 123 123 123 104
 104 104 104 343 343 343 343 343 343 343 313 284 253 253 253 253 253 253 120 120
 120 120 120 120 382 382 382 382 32 104 104 104 104 343 343 343 343 343 343 313
 215 215 215 253 266 266 180 180 180 120 120 120 120 382 382 382 382 382 30 32
 32 104 104 231 231 231 258 258 258 258 215 215 215 1 1 266 180 180 180 120
 120 120 120 382 382 382 382 382 30 30 32 269 231 231 231 231 231 258 258 258
 215 215 215 1 1 1 1 180 180 180 131 131 131 382 382 382 382 382 30 30
 269 269 269 231 231 231 231 16 16 215 215 215 215 215 1 1 1 1 293 293
 131 131 131 382 382 382 382 382 30 30 269 269 269 231 231 231 16 16 16 215
 215 215 215 215 1 1 1 293 293 293 131 131 131 289 289 382 382 382 394 394
 269 269 269 316 231 231 16 16 16 215 371 371 371 371 1 1 1 293 293 293
 131 289 289 289 289 289 289 199 394 394 394 394 316 316 193 193 193 193 193 371
 371 371 371 371 293 293 293 293 293 293 289 289 289 289 289 289 235 235 235 394
 394 394 316 316 148 193 193 193 193 371 371 371 371 371 299 299 293 293 60 60
 60 289 289 289 289 289 235 235 235 235 235 394 148 148 148 193 193 193 193 193
 371 371 371 371 299 299 299 217 60 60 60 289 289 289 289 235 235 235 235 235
 235 235 148 148 148 148 193 193 193 193 371 292 371 371 299 299 299 217 60 60
 60 60 9 9 9 235 235 235 235 235 235 235 148 148 148 148 148 193 193 193
 324 324 324 299 299 299 299 217 60 60 60 250 9 9 235 235 235 235 235 235
 235 201 201 148 148 148 148 148 148 193 324 324 324 324 299 74 74 74 74 250
 250 250 106 365 365 365 235 235 235 235 201 201 201 201 148 148 148 148 310 310
 310 324 324 324 74 74 74 74 74 250 250 106 106 365 365 365 365 365 235 235
 201 201 201 201 201 148 148 310 310 310 310 310 25 25 25 74 74 74 74 74
 106 106 106 365 365 365 365 365 365 201 201 201 201 201 201 387 310 310 310 310
 310 25 25 25 25 74 74 74 74 375 106 106 106 365 365 365 365 365 278 278
 278 201 201 201 387 387 387 310 310 310 184 184 25 25 25 10 10 10 375 375
 375 106 106 365 365 365 12 12 278 278 278 115 115 387 387 387 387 319 310 310
 184 184 184 25 25 10 10 10 10 375 375 67 106 365 12 12 12 12 12 278
 115 115 115 387 387 387 387 274 274 191 184 184 184 25 25 10 10 10 10 10
 271 271 271 271 12 12 12 12 12 115 115 115 115 115 387 387 274 274 274 274
 184 184 184 151 151 151 10 10 10 10 271 271 271 271 238 238 238 12 12 115
 115 115 115 115 79 79 79 274 274 274 130 130 130 151 151 151 151 10 10 271
 271 271 271 271 238 238 238 238 381 381 115 115 115 115 79 79 79 274 274 130
 130 130 130 130 151 151 10 197 197 197 285 285 285 285 238 238 238 200 200 200
 381 381 115 260 260 79 79 274 130 130 130 130 130 130 151 216 216 197 197 197
 285 285 285 285 285 200 200 200 200 200 200 381 225 225 260 260 260 251 251 130
 130 130 130 130 216 216 216 197 197 197 285 285 285 285 200 200 200 200 200 200
 200 19 225 225 225 260 260 251 251 251 251 130 130 130 216 216 216 216 216 197
 285 285 285 285 200 200 200 200 200 200 298 298 298 298 225 260 397 251 251 251
 251 130 40 40 216 216 216 216 216 120 120 120 120 120 200 200 200 200 200 200
 298 298 298 298 343 397 397 397 397 251 13 40 40 40 253 253 253 253 216 120
 120 120 120 120 120 200 200 200 200 298 298 298 298 298 343 343 397 397 397 397
 75 40 40 40 253 253 253 253 120 120 120 120 120 120 120 200 200 200 200 298
 298 298 298 343 343 343 343 397 397 397 75 75 40 40 253 253 253 253 120 120
 120 120 120 120 120 200 200 200 123 104 104 104 104 343 343 343 343 343 397 397
 75 75 40 253 253 253 253 253 345 345 120 120 120 120 120 382 382 123 123 104
 104 104 104 343 343 343 343 343 343 343 75 75 253 253 253 253 253 345 345 345
 345 120 120 120 382 382 382 382 382 104 104 104 104 343 343 343 343 343 343 343
 215 215 215 267 266 266 180 180 180 345 345 120 120 382 382 382 382 382 382 32
 104 104 380 343 343 343 258 258 258 258 215 215 215 267 266 266 180 180 180 345
 359 359 359 382 382 382 382 382 382 380 380 380 380 380 231 231 258 258 258 258
 215 215 215 1 1 1 1 180 180 359 359 359 359 382 382 382 382 382 382 380
 380 380 380 380 231 231 231 258 258 215 215 215 215 1 1 1 1 1 180 359
 359 359 359 359 382 382 382 382 382 394 380 380 380 380 231 231 231 16 16 215
 215 215 215 1 1 1 1 1 293 359 359 359 359 359 382 382 382 382 394 394
 394 380 316 316 316 231 16 16 16 215 215 215 215 1 1 1 1 1 293 359
 359 359 289 289 289 289 289 394 394 394 394 394 316 316 316 193 193 193 193 193
 371 371 371 371 299 299 299 293 293 60 289 289 289 289 289 289 235 235 394 394
 394 394 316 316 193 193 193 193 193 193 371 292 371 299 299 299 299 299 60 60
 60 289 289 289 289 289 235 235 235 394 394 394 394 316 193 193 193 193 193 193
 292 292 292 299 299 299 299 217 60 60 60 60 289 289 289 235 235 235 235 235
 235 394 394 148 193 193 193 193 193 193 292 292 292 299 299 299 299 217 60 60
 60 60 289 289 289 235 235 235 235 235 235 235 201 148 148 193 193 193 193 193
 292 292 292 299 299 299 299 217 60 60 60 60 9 9 235 235 235 235 235 235
 235 201 201 201 201 168 148 193 193 193 292 292 292 299 299 299 299 74 60 60
 106 106 106 106 365 365 235 235 235 235 201 201 201 201 201 168 168 168 272 272
 310 324 25 25 25 74 74 74 74 106 106 106 106 106 365 365 365 365 235 235
 201 201 201 201 201 168 78 310 310 310 310 25 25 25 25 74 74 74 74 106
 106 106 106 106 365 365 365 365 365 201 201 201 201 201 201 387 387 310 310 310
 25 25 25 25 25 74 74 74 74 106 106 106 106 106 365 365 365 365 278 278
 278 201 201 387 387 387 387 387 310 310 25 25 25 25 25 25 10 10 10 10
 106 106 106 106 365 365 365 365 278 278 278 115 387 387 387 387 387 387 191 191
 184 25 25 25 25 10 10 10 10 10 10 106 106 271 12 12 12 12 278 278
 278 115 387 387 387 387 274 274 274 191 184 184 25 25 25 10 10 10 10 10
 271 271 271 271 12 12 12 12 12 115 115 115 115 387 387 387 274 274 274 274
 184 184 25 25 151 10 10 10 10 271 271 271 271 271 238 238 238 238 12 264
 115 115 115 387 387 387 274 274 274 274 130 130 130 151 151 151 10 10 10 271
 271 271 271 271 238 238 238 238 238 264 264 264 264 264 79 79 274 274 274 274
 130 130 130 130 161 161 161 197 197 197 271 271 271 271 238 238 238 238 200 200
 264 264 264 225 225 225 274 274 274 130 130 130 130 130 161 161 161 197 197 197
 197 285 285 285 200 200 200 200 200 200 200 264 225 225 225 225 260 251 251 251
 130 130 130 237 161 161 161 197 197 197 197 285 285 285 200 200 200 200 200 200
 200 200 225 225 225 225 225 251 251 251 251 130 237 237 237 161 161 197 197 197
 197 285 285 285 200 200 200 200 200 200 298 298 298 225 225 225 397 397 251 251
 251 40 40 237 237 237 216 216 80 80 120 120 120 120 200 200 200 200 200 200
 298 298 298 298 343 397 397 397 397 397 40 40 40 40 40 253 253 253 80 80
 120 120 120 120 120 200 200 200 200 298 298 298 298 298 343 343 397 397 397 397
 75 75 40 40 265 265 265 265 80 80 80 120 120 120 120 200 200 200 200 298
 298 298 298 343 343 343 343 397 397 397 75 75 75 265 265 265 265 265 345 345
 345 120 120 120 120 200 200 200 200 77 77 77 298 343 343 343 343 343 397 75
 75 75 75 265 265 265 265 345 345 345 345 345 120 120 382 382 382 123 77 77
 77 77 77 343 343 343 343 343 343 75 75 75 75 265 265 265 265 345 345 345
 345 345 120 120 382 382 382 382 382 77 77 104 343 343 343 343 343 343 343 75
 215 267 267 267 267 266 180 180 345 345 345 345 120 382 382 382 382 382 382 380
 380 380 380 84 84 343 258 258 258 258 215 215 267 267 267 266 180 180 180 345
 359 359 359 382 382 382 382 382 382 380 380 380 380 380 380 231 258 258 258 258
 215 215 267 267 1 1 1 180 180 359 359 359 359 359 382 382 382 382 382 380
 380 380 380 380 380 231 258 258 258 215 215 215 215 1 1 1 1 1 180 359
 359 359 359 359 382 382 382 382 140 380 380 380 380 380 380 231 231 16 16 215
 215 215 215 1 1 1 1 1 1 359 359 359 359 359 382 382 382 382 394 394
 394 380 316 316 316 316 11 11 11 215 215 215 215 1 1 1 1 1 359 359