# vtk DataFile Version 2.0
Data set from IO Version 6.4.197.9a0dee2
ASCII

DATASET RECTILINEAR_GRID
DIMENSIONS 31 31 31
X_COORDINATES 31 float
-4.416667 4.416667 13.250000 22.083334 30.916666 39.749996 48.583332 57.416664 66.250000 75.083336 83.916664 92.750000 101.583336 110.416664 119.250000 128.083328 136.916656 145.749985 154.583328 163.416656 172.249985 
181.083328 189.916656 198.749985 207.583328 216.416656 225.249985 234.083313 242.916656 251.749985 260.583344 
Y_COORDINATES 31 float
-4.416667 4.416667 13.250000 22.083334 30.916666 39.749996 48.583332 57.416664 66.250000 75.083336 83.916664 92.750000 101.583336 110.416664 119.250000 128.083328 136.916656 145.749985 154.583328 163.416656 172.249985 
181.083328 189.916656 198.749985 207.583328 216.416656 225.249985 234.083313 242.916656 251.749985 260.583344 
Z_COORDINATES 31 float
-4.416667 4.416667 13.250000 22.083334 30.916666 39.749996 48.583332 57.416664 66.250000 75.083336 83.916664 92.750000 101.583336 110.416664 119.250000 128.083328 136.916656 145.749985 154.583328 163.416656 172.249985 
181.083328 189.916656 198.749985 207.583328 216.416656 225.249985 234.083313 242.916656 251.749985 260.583344 
CELL_DATA 27000
SCALARS FeatureIds int 1
LOOKUP_TABLE default
 158 158 158 199 199 199 344 344 344 23 23 23 23 327 287 287 287 76 76 76
 76 120 120 120 120 120 120 120 263 263 263 158 158 199 199 178 344 344 344 23
 23 23 23 23 287 287 287 82 76 76 120 120 120 120 120 120 120 120 263 263
 263 263 147 178 178 178 178 178 178 23 23 23 23 23 313 287 82 82 82 76
 120 120 120 120 120 120 120 120 263 263 147 147 147 178 178 178 178 178 360 360
 360 23 23 23 362 82 82 82 82 82 120 120 120 120 120 120 120 120 263 263
 147 147 147 319 319 178 178 360 360 360 360 360 360 362 362 362 82 82 82 82
 120 120 120 120 120 120 58 58 58 147 147 147 319 319 319 178 178 360 360 360
 360 360 289 289 362 362 362 82 82 82 224 224 224 224 120 58 58 58 58 147
 147 147 319 319 319 178 213 213 360 360 360 289 289 289 289 362 362 82 82 364
 224 224 224 224 58 58 58 58 249 249 113 113 113 113 113 213 213 213 213 360
 360 289 289 289 289 289 289 364 364 364 224 224 224 224 249 249 249 249 249 249
 113 113 113 113 113 113 213 213 213 360 360 289 289 289 289 289 364 364 364 364
 364 224 171 171 171 171 249 249 249 113 113 113 113 113 113 113 213 213 213 360
 289 289 289 289 289 289 364 364 364 364 364 364 171 171 171 171 171 249 249 113
 113 113 113 113 113 113 141 141 141 279 279 279 233 233 233 364 364 364 364 364
 364 332 332 332 171 171 171 171 113 113 113 113 113 113 113 141 141 141 141 279
 279 279 233 233 233 233 364 364 364 364 167 332 332 332 332 171 171 171 113 113
 122 303 157 157 157 141 141 141 141 279 279 279 233 233 233 233 233 364 167 167
 167 167 332 332 332 171 171 122 122 122 122 122 157 157 157 141 141 141 141 279
 279 279 233 233 233 233 233 167 167 167 167 167 332 332 332 156 156 156 122 122
 122 122 157 157 157 141 141 141 119 119 119 233 233 233 233 233 233 233 167 167
 167 167 269 269 269 156 156 156 156 122 122 145 157 157 157 141 141 141 119 119
 119 233 233 233 233 233 233 399 399 281 281 281 269 269 269 269 156 156 156 156
 145 145 145 145 383 383 383 119 119 119 119 233 233 304 233 233 399 399 399 281
 281 281 269 269 269 269 156 156 156 156 145 145 145 145 383 383 383 119 119 119
 119 345 304 304 304 399 399 399 399 281 281 281 269 269 269 269 156 156 156 156
 175 145 145 145 383 383 383 219 219 345 345 345 345 304 304 399 399 399 399 281
 8 8 269 269 269 269 354 354 354 175 175 175 261 261 261 219 219 219 219 345
 345 345 345 345 304 124 399 399 399 8 8 8 8 269 269 354 354 354 175 175
 175 64 261 261 261 219 219 219 219 345 345 345 345 124 124 124 124 124 124 8
 8 8 123 123 123 123 354 354 175 175 64 64 261 261 261 219 219 219 219 219
 39 39 39 124 124 124 124 124 124 123 123 123 123 123 123 123 354 175 175 175
 64 64 64 261 261 261 219 219 219 39 39 39 39 124 124 124 124 124 124 123
 123 123 123 123 123 123 354 175 175 64 64 64 64 261 261 261 155 155 39 39
 39 39 39 39 124 124 124 124 206 123 123 123 123 123 123 123 75 75 75 64
 64 216 216 261 261 155 155 155 155 39 39 39 39 39 206 206 206 206 206 133
 133 133 133 133 123 75 75 75 75 64 216 216 216 216 261 155 155 155 155 155
 39 39 39 206 206 206 206 206 206 133 133 133 133 133 133 75 75 75 75 75
 216 216 216 216 216 155 155 155 155 155 168 168 168 26 206 206 206 206 206 133
 133 133 133 133 133 75 75 75 75 75 216 216 216 199 199 155 155 155 155 168
 168 168 168 26 26 206 206 206 76 76 133 133 133 133 96 96 96 96 75 158
 158 158 158 199 199 199 344 344 344 344 168 168 168 26 287 287 287 76 76 76
 76 76 120 120 120 96 96 96 158 158 158 158 158 199 199 199 344 344 344 344
 168 168 327 327 287 287 287 76 76 76 76 120 120 120 120 120 96 158 158 158
 158 158 158 199 236 236 236 344 344 23 23 23 313 313 313 287 287 76 76 76
 76 186 120 120 120 120 120 120 158 158 158 158 158 236 236 236 236 344 344 23
 23 23 313 313 313 287 287 82 76 76 186 186 120 120 120 120 120 120 263 263
 263 147 147 236 236 178 178 178 360 360 23 23 313 313 313 313 82 82 82 186
 186 186 120 120 120 120 120 120 263 263 147 147 147 147 178 178 178 178 360 360
 360 23 313 313 313 82 82 82 82 82 186 120 120 120 120 120 120 58 239 239
 147 147 147 319 228 178 178 360 360 360 360 360 360 362 362 362 362 82 82 82
 224 224 224 120 120 58 58 58 239 239 147 147 147 319 228 228 228 360 360 360
 360 360 289 289 362 362 362 82 82 224 224 224 224 224 224 58 58 58 58 239
 147 147 147 319 228 228 228 360 360 360 360 360 289 289 362 362 362 364 364 364
 224 224 224 224 224 58 58 58 58 239 113 113 113 113 113 228 228 360 360 360
 360 289 289 289 289 289 364 364 364 364 364 224 224 224 224 58 58 58 58 113
 113 113 113 113 113 113 213 213 213 360 360 289 289 289 289 364 364 364 364 364
 364 224 224 171 171 171 249 249 249 113 113 113 113 113 113 113 213 213 213 279
 279 67 67 67 67 364 364 364 364 364 364 364 171 171 171 171 171 171 113 113
 113 113 113 113 113 113 141 141 279 279 279 279 67 67 67 364 364 364 364 364
 364 364 332 171 171 171 171 171 113 113 113 113 113 113 113 141 141 141 279 279
 279 279 233 233 233 364 364 364 364 364 364 364 332 332 171 171 171 171 113 113
 122 122 157 157 157 141 141 141 141 279 279 279 233 233 233 233 364 364 167 167
 167 167 332 332 171 171 171 171 122 122 122 122 157 157 157 141 141 141 141 279
 279 279 233 233 233 233 233 167 167 167 167 167 167 332 171 171 156 156 122 122
 122 122 157 157 157 141 141 141 141 119 279 279 233 233 233 233 233 167 167 167
 167 167 269 269 269 156 156 156 156 122 122 145 157 157 383 383 141 235 119 119
 119 233 233 233 233 233 399 399 399 167 167 281 269 269 269 156 156 156 156 156
 145 145 145 145 383 383 383 119 119 119 119 304 304 304 304 399 399 399 399 399
 281 281 269 269 269 269 156 156 156 156 145 145 145 145 383 383 383 383 119 119
 11 345 304 304 304 399 399 399 399 399 8 8 269 269 269 269 156 156 156 156
 145 145 145 145 383 383 383 219 219 345 345 345 345 304 304 399 399 399 399 399
 8 8 8 269 269 269 354 354 354 175 175 175 261 261 383 383 383 219 219 345
 345 345 345 345 304 399 399 399 399 8 8 8 8 269 269 354 354 354 354 175
 175 64 64 261 65 65 65 65 219 345 345 345 345 345 124 124 124 334 267 267
 8 8 8 123 123 354 354 354 354 175 64 64 64 261 65 65 65 65 219 243
 345 345 345 124 124 124 124 334 267 267 267 123 123 123 123 123 354 354 175 64
 64 64 64 64 65 65 65 65 243 198 198 198 198 124 124 124 334 334 334 123
 123 123 123 123 123 123 266 266 175 64 64 64 64 64 65 65 65 155 155 198
 198 198 198 198 124 124 334 334 334 133 133 133 133 123 123 374 266 266 266 64
 216 216 216 64 401 401 155 155 155 198 198 198 198 198 206 206 206 206 206 133
 133 133 133 133 133 374 75 75 75 64 216 216 216 216 401 401 155 155 155 155
 198 198 198 5 5 5 206 206 206 133 133 133 133 133 133 75 75 75 75 75
 216 216 216 216 401 401 155 155 155 155 168 168 168 5 5 5 5 206 206 133
 133 133 133 133 96 96 96 96 75 75 216 216 216 216 401 401 155 155 155 168
 168 101 168 5 5 5 5 5 76 133 133 133 133 133 96 96 96 96 96 158
 158 158 158 199 199 199 344 344 344 168 168 168 168 5 5 5 5 5 76 76
 76 76 133 120 96 96 96 96 158 158 158 158 158 199 199 199 344 344 344 344
 168 168 327 327 287 287 287 76 76 76 76 120 120 120 120 96 96 96 158 158
 158 158 158 236 236 236 236 236 29 29 313 313 313 313 313 313 313 142 142 186
 186 186 186 120 120 120 120 120 158 158 158 158 236 236 236 236 236 236 384 29
 23 313 313 313 313 313 142 142 142 186 186 186 186 120 120 120 120 191 191 263
 239 147 236 236 236 236 236 236 360 360 313 313 313 313 313 313 142 142 142 142
 186 186 186 120 120 120 120 191 239 239 239 147 147 236 236 228 228 360 360 360
 360 360 313 313 313 313 142 142 142 142 186 186 186 120 120 120 191 239 239 239
 239 147 147 228 228 228 228 360 360 360 360 360 329 329 362 362 362 82 142 142
 186 224 224 224 120 191 58 239 239 239 239 147 147 228 228 228 228 360 360 360
 360 360 329 329 362 362 362 362 364 364 224 224 224 224 224 58 58 58 239 239
 239 147 147 228 228 228 228 360 360 360 360 360 329 329 362 362 362 364 364 364
 224 224 224 224 224 58 58 58 239 239 113 113 113 113 228 228 228 360 360 360
 360 360 67 67 67 364 364 364 364 364 364 224 224 224 224 58 58 58 58 239
 113 113 113 113 113 228 228 360 360 360 360 67 67 67 67 364 364 364 364 364
 364 224 224 224 171 171 249 306 113 113 113 113 113 113 113 113 387 387 360 360
 67 67 67 67 67 364 364 364 364 364 364 364 171 171 171 171 400 306 113 113
 113 113 113 113 113 387 387 387 181 279 279 67 67 67 67 364 364 364 364 364
 364 364 171 171 171 400 400 400 113 113 113 113 113 113 157 387 387 387 279 279
 279 279 67 67 67 364 364 364 364 364 364 364 171 171 171 400 400 400 113 113
 122 122 157 157 157 157 141 141 141 279 279 279 279 233 233 233 364 364 364 167
 167 167 14 14 14 400 14 14 122 122 122 122 157 157 157 141 235 235 235 279
 279 279 233 233 233 233 364 167 167 167 167 167 167 14 14 400 156 156 122 122
 122 122 157 157 157 235 235 235 235 119 279 279 233 233 233 233 284 167 167 167
 167 167 269 269 269 156 156 156 156 122 122 145 157 157 157 235 235 235 235 235
 119 11 233 233 233 233 399 399 399 167 167 167 269 269 269 156 156 156 156 156
 145 145 145 240 383 383 235 235 235 11 11 11 304 304 304 399 399 399 399 399
 322 269 269 269 269 269 156 156 156 156 145 145 145 240 383 383 383 240 235 11
 11 11 304 304 304 399 399 399 399 399 8 8 269 269 269 269 156 156 156 248
 145 145 145 240 383 383 383 240 240 11 345 11 11 304 304 399 399 399 399 399
 8 8 8 269 269 269 354 354 354 354 175 145 145 65 65 65 65 65 243 243
 345 345 345 345 345 399 399 399 399 8 8 8 8 269 269 354 354 354 354 175
 64 64 64 65 65 65 65 65 243 243 345 345 345 345 345 334 334 334 267 267
 267 8 8 8 315 354 354 354 354 175 64 64 64 65 65 65 65 65 243 243
 243 198 198 198 124 334 334 334 267 267 267 267 123 123 315 315 266 266 266 64
 64 64 64 65 65 65 65 65 243 243 198 198 198 198 334 334 334 334 334 267
 267 267 123 123 374 374 266 266 266 64 64 64 64 64 65 65 65 65 243 198
 198 198 198 198 198 334 334 334 334 334 133 133 133 133 374 374 266 266 266 64
 216 216 64 64 401 401 401 155 155 198 198 198 198 198 5 334 334 334 9 9
 133 133 133 133 374 374 139 139 139 64 216 216 216 401 401 401 401 155 155 198
 198 198 198 5 5 5 5 5 9 9 133 133 133 133 374 374 139 139 139 139
 216 216 216 216 401 401 401 155 155 155 168 168 168 5 5 5 5 5 9 9
 133 133 133 133 96 96 96 139 139 139 216 216 216 216 401 401 401 155 155 168
 168 168 168 5 5 5 5 5 5 283 283 283 283 283 96 96 96 96 139 158
 158 158 158 236 236 236 236 29 29 168 168 168 168 5 5 5 5 5 76 283
 283 283 283 283 96 96 96 96 158 158 158 158 158 236 236 236 236 29 29 29
 168 168 313 313 5 5 5 5 76 283 283 186 186 120 96 96 96 96 158 158
 158 158 236 236 236 236 236 236 29 29 29 313 313 313 313 313 313 142 142 186
 186 186 186 186 120 378 191 191 191 158 292 292 236 236 236 236 236 236 384 29
 29 313 313 313 313 313 142 142 142 142 186 186 186 186 120 191 191 191 191 191
 239 292 236 236 236 236 236 236 384 29 313 313 313 313 313 313 142 142 142 142
 186 186 186 186 191 191 191 191 191 191 239 239 236 236 236 228 228 228 360 360
 71 329 329 313 329 329 142 142 142 142 186 186 186 186 191 191 191 191 191 239
 239 239 147 228 228 228 228 228 360 360 71 329 329 329 329 329 362 142 142 142
 186 224 224 144 191 191 191 191 239 239 239 239 147 228 228 228 228 228 360 71
 71 71 329 329 329 329 362 364 142 142 224 224 224 144 144 191 191 239 239 239
 239 239 147 228 228 228 228 228 71 71 71 71 329 329 329 364 364 364 364 364
 224 224 224 224 224 306 306 239 239 239 113 113 113 113 228 228 228 228 71 71
 71 71 67 67 67 364 364 364 364 364 364 224 224 224 306 306 306 306 239 239
 113 113 113 113 113 228 228 228 71 71 71 67 67 67 67 364 364 364 364 364
 364 364 224 224 306 306 306 306 306 113 113 113 113 113 113 387 387 387 71 71
 71 67 67 67 67 364 364 364 364 364 364 364 14 14 14 306 306 306 306 113
 113 113 113 113 387 387 387 387 181 181 181 67 67 67 67 364 364 364 364 364
 364 364 14 14 14 400 400 306 306 113 113 113 113 387 387 387 387 387 181 181
 181 67 67 67 67 364 364 364 364 364 364 364 14 14 14 14 400 306 306 113
 122 113 157 157 387 387 387 387 181 181 181 229 229 229 229 364 364 364 364 364
 364 364 14 14 14 14 14 14 306 122 122 122 157 157 157 235 235 235 235 279
 279 229 229 229 229 229 284 284 284 167 167 167 14 14 14 14 14 14 122 122
 122 88 157 157 157 235 235 235 235 235 173 173 229 229 229 229 284 284 284 284
 167 167 336 336 14 14 156 156 156 122 248 88 240 240 240 240 235 235 235 235
 173 173 173 229 229 284 284 284 284 284 322 322 322 269 269 156 156 156 156 122
 248 145 240 240 240 240 235 235 235 11 11 11 11 11 304 284 284 284 284 284
 322 322 322 269 269 269 156 156 248 248 248 248 240 240 240 240 240 240 235 11
 11 11 11 11 304 399 399 399 399 322 322 322 322 269 269 269 156 156 248 248
 248 248 240 240 240 240 240 240 240 11 11 11 11 11 11 106 399 399 399 322
 322 322 322 269 269 269 354 354 248 248 248 296 240 240 240 65 65 240 243 243
 243 345 345 345 345 334 334 334 267 267 8 8 8 269 269 354 354 354 354 248
 296 296 296 65 65 65 65 65 243 243 243 243 345 218 334 334 334 334 267 267
 267 8 8 315 315 394 394 394 394 394 296 296 296 65 65 65 65 65 243 243
 243 243 198 198 334 334 334 334 267 267 267 267 315 315 315 315 394 394 394 394
 64 64 64 65 65 65 65 65 243 243 243 198 198 198 334 334 334 334 334 267
 267 267 315 315 374 374 266 266 266 64 64 64 64 65 65 65 65 69 69 69
 198 198 198 198 334 334 334 334 334 334 133 133 133 374 374 374 374 266 266 64
 216 216 64 401 401 401 401 69 69 69 198 198 198 198 198 334 334 334 9 9
 9 133 133 374 374 374 374 139 139 139 216 216 216 401 401 401 401 401 69 69
 198 198 198 5 5 5 5 5 9 9 9 133 133 133 374 374 139 139 139 139
 216 201 216 401 401 401 401 401 155 204 204 204 204 5 5 5 5 5 9 9
 283 283 283 283 374 96 139 139 139 139 201 201 201 201 401 401 401 29 29 29
 204 204 204 5 5 5 5 5 283 283 283 283 283 283 96 96 96 139 139 139
 201 201 201 201 236 401 236 29 29 29 204 204 204 5 5 5 5 5 283 283
 283 283 283 283 96 96 96 96 158 158 158 201 201 236 236 236 236 29 29 29
 29 29 313 313 5 5 5 5 5 283 283 283 186 283 378 378 96 96 158 158
 292 292 292 236 236 236 236 384 29 29 29 29 313 313 313 313 142 142 142 186
 186 186 186 186 378 378 378 191 191 191 292 292 292 236 236 236 236 384 384 29
 29 313 313 313 313 313 142 142 142 142 186 186 186 186 191 191 191 191 191 191
 292 292 292 236 236 236 236 384 384 384 29 313 313 313 313 313 142 142 142 142
 186 186 186 186 191 191 191 191 191 191 239 239 292 236 236 236 228 228 71 71
 71 329 329 329 329 329 142 142 142 142 186 186 186 144 191 191 191 191 191 191
 239 239 239 228 228 228 228 228 71 71 71 329 329 329 329 329 142 142 142 142
 186 186 144 144 144 191 191 191 191 239 239 239 77 228 228 228 228 71 71 71
 71 71 329 329 329 329 329 142 142 142 144 144 144 144 144 191 191 191 239 239
 239 77 77 228 228 228 228 71 71 71 71 71 329 329 329 329 364 364 364 364
 364 144 144 144 144 306 306 239 239 239 77 77 77 228 228 228 228 71 71 71
 71 71 329 329 329 364 364 364 364 364 364 144 144 144 306 306 306 306 306 239
 77 77 77 77 228 228 228 71 71 71 71 71 67 67 67 364 364 364 364 364
 364 364 144 306 306 306 306 306 306 306 113 113 113 113 387 387 387 387 181 181
 181 67 67 67 67 364 364 364 364 364 364 364 14 14 14 306 306 306 306 306
 113 113 113 387 387 387 387 387 181 181 181 67 67 67 67 364 364 364 364 364
 364 364 14 14 14 14 306 306 306 306 113 113 85 85 387 387 387 387 181 181
 181 181 67 229 229 364 364 364 364 364 364 14 14 14 14 14 14 306 306 306
 122 85 85 85 85 387 387 387 181 181 181 229 229 229 229 229 364 364 364 364
 294 14 14 14 14 14 14 14 306 306 122 88 85 85 85 85 235 235 181 181
 173 229 229 229 229 229 284 284 284 284 294 336 336 14 14 14 14 14 306 122
 88 88 85 85 85 240 235 235 235 173 173 173 229 229 229 229 284 284 284 284
 284 336 336 336 14 14 14 14 125 125 88 88 88 240 240 240 240 235 235 173
 173 173 173 229 229 284 284 284 284 284 322 322 336 336 336 14 156 156 125 125
 248 88 240 240 240 240 240 235 235 173 173 173 173 173 106 106 284 284 284 284
 322 322 322 322 336 110 156 248 248 248 248 248 240 240 240 240 240 240 240 11
 11 11 11 11 106 106 321 284 284 322 322 322 322 322 322 110 248 248 248 248
 248 248 240 240 240 240 240 240 240 240 11 11 11 11 106 106 106 284 284 322
 322 322 322 322 322 110 248 248 248 248 248 296 296 240 240 240 240 240 243 243
 243 243 243 218 218 106 334 334 334 322 322 322 322 322 315 394 394 394 394 248
 296 296 296 65 65 65 65 65 243 243 243 243 243 218 218 334 334 334 267 267
 267 267 315 315 315 394 394 394 394 394 296 296 296 65 65 65 65 65 243 243
 243 243 198 218 218 334 334 334 334 267 267 267 315 315 315 315 394 394 394 394
 296 296 296 65 65 65 65 69 69 243 243 198 198 218 218 334 334 334 334 267
 267 267 315 315 315 374 394 394 394 394 296 296 296 65 65 65 65 69 69 69
 69 198 198 218 218 334 334 334 334 334 267 74 315 315 374 374 374 394 394 394
 296 296 296 401 401 401 401 69 69 69 69 198 198 198 218 334 334 334 334 9
 9 133 133 374 374 374 374 139 139 139 201 201 201 401 401 401 401 401 69 69
 69 198 204 5 5 5 5 5 9 9 9 283 283 374 374 374 139 139 139 139
 201 201 201 401 401 401 401 401 69 204 204 204 204 5 5 5 5 5 9 283
 283 283 283 283 374 374 139 139 139 139 201 201 201 201 401 401 401 29 29 29
 204 204 204 5 5 5 5 5 283 283 283 283 283 283 283 96 96 139 139 201
 201 201 201 201 201 236 29 29 29 29 204 204 204 5 5 5 5 5 283 283
 283 283 283 283 378 378 378 378 201 201 201 201 201 236 236 236 236 29 29 29
 29 29 204 313 5 5 5 5 283 283 283 283 283 283 378 378 378 378 201 201
 292 292 292 236 236 236 236 384 29 29 29 29 313 313 313 313 241 142 142 221
 186 186 186 257 378 378 378 191 191 191 292 292 292 236 236 236 236 384 384 29
 29 29 313 313 313 313 142 142 142 142 186 186 186 257 257 191 191 191 191 191
 292 292 292 236 236 236 236 384 384 384 29 313 313 313 329 329 142 142 142 142
 186 186 186 257 191 191 191 191 191 191 191 292 292 236 236 236 236 71 71 71
 71 20 329 329 329 329 142 142 142 142 186 186 186 144 191 191 191 191 191 191
 239 77 77 77 228 228 228 71 71 71 71 71 329 329 329 329 329 142 142 142
 160 144 144 144 144 191 191 191 191 191 239 77 77 77 228 228 228 71 71 71
 71 71 329 329 329 329 329 329 364 220 144 144 144 144 144 191 191 191 191 239
 77 77 77 77 228 228 228 71 71 71 71 71 329 329 329 329 364 364 364 364
 220 144 144 144 144 191 306 306 239 239 77 77 77 77 228 228 228 71 71 71
 71 71 329 329 329 364 364 364 364 364 220 220 144 144 144 306 306 306 306 77
 77 77 77 77 77 228 228 71 71 71 71 71 67 67 67 364 364 364 364 364
 364 364 14 14 14 306 306 306 306 306 77 77 77 77 387 387 387 181 181 181
 181 67 67 67 67 364 364 364 364 364 364 364 14 14 14 14 306 306 306 306
 306 77 77 85 387 387 387 181 181 181 181 181 67 67 67 364 364 364 364 364
 364 14 14 14 14 14 306 306 306 306 306 85 85 85 387 387 387 181 181 181
 181 181 229 229 229 229 364 364 364 364 294 14 14 14 14 14 14 306 306 306
 306 85 85 85 85 387 387 181 181 181 181 229 229 229 229 229 364 364 294 294
 294 294 14 14 14 14 14 14 306 306 88 88 85 85 85 85 85 181 181 181
 173 229 229 229 229 229 284 284 284 294 294 336 336 336 14 14 14 14 306 125
 88 88 88 85 85 240 240 240 240 173 173 173 229 229 229 229 284 284 284 284
 294 336 336 336 336 14 14 14 125 125 88 88 88 240 240 240 240 240 240 173
 173 173 173 229 229 284 284 284 284 284 322 322 336 336 336 110 110 125 125 125
 248 88 88 240 240 240 240 240 240 173 173 173 173 173 106 106 284 284 284 284
 322 322 322 336 110 110 110 248 248 248 248 248 240 240 240 240 240 240 240 173
 173 173 173 173 106 106 106 284 284 322 322 322 322 322 110 110 110 248 248 248
 248 248 240 240 240 240 240 240 240 240 173 11 11 11 106 106 106 284 284 322
 322 322 322 322 110 110 110 248 248 248 248 296 296 240 240 240 240 240 243 243
 243 243 218 218 218 218 106 334 334 322 322 322 322 322 110 110 394 394 394 248
 296 296 296 296 65 65 240 243 243 243 243 243 218 218 218 218 334 334 334 267
 267 322 315 315 315 315 394 394 394 394 296 296 296 296 65 65 65 69 243 243
 243 243 218 218 218 218 334 334 334 267 267 267 315 315 315 315 394 394 394 394
 296 296 296 296 65 65 65 69 69 69 69 69 218 218 218 218 334 334 334 334
 74 74 315 315 315 315 394 394 394 394 296 296 296 296 65 65 69 69 69 69
 69 69 198 218 218 218 334 334 334 334 74 74 74 315 315 374 374 394 394 394
 296 296 296 296 401 401 401 69 69 69 69 69 198 218 218 218 334 334 334 9
 74 74 74 374 374 374 374 139 139 139 201 201 201 401 401 401 401 69 69 69
 69 204 204 5 5 5 5 334 9 283 283 283 283 374 374 374 374 139 139 139
 201 201 201 201 401 401 401 118 69 204 204 204 204 204 5 5 5 5 9 283
 283 283 283 283 374 374 139 139 139 201 201 201 201 201 201 396 401 29 29 29
 204 162 204 204 5 5 5 5 283 283 283 283 283 283 283 378 378 139 201 201
 201 201 201 201 201 236 29 29 29 29 29 204 204 204 5 5 5 5 283 283
 283 283 283 283 378 378 378 378 201 201 201 201 201 201 236 236 236 29 29 29
 29 204 204 204 5 5 5 5 221 221 283 283 283 283 378 378 378 378 201 201
 292 292 292 236 236 236 169 384 29 29 29 29 313 313 241 241 241 241 221 221
 221 257 257 257 257 378 378 191 191 191 292 292 292 236 236 236 384 384 384 29
 29 29 313 313 313 241 241 142 221 221 221 257 257 257 257 257 191 191 191 191
 292 292 292 236 236 236 384 384 384 48 20 20 20 20 329 329 142 160 160 160
 160 257 257 257 257 191 191 191 191 191 191 292 292 77 236 50 50 71 71 48
 20 20 20 329 329 329 329 160 160 160 160 160 257 257 191 191 191 191 191 191
 77 77 77 77 50 50 50 71 71 71 71 20 329 329 329 329 329 160 160 160
 160 160 144 144 144 191 191 191 191 191 77 77 77 77 50 50 50 71 71 71
 71 71 329 329 329 329 329 329 220 220 220 144 144 144 144 191 191 191 191 191
 77 77 77 77 50 50 50 71 71 71 71 71 329 329 329 329 364 364 220 220
 220 220 144 144 144 191 306 306 306 77 77 77 77 77 77 50 50 71 71 71
 71 71 329 329 329 365 364 364 220 220 220 220 144 144 144 306 306 306 306 77
 77 77 77 77 77 77 78 78 71 71 71 71 329 329 365 365 365 364 220 220
 220 220 14 14 14 306 306 306 306 77 77 77 77 77 77 77 78 78 181 181
 71 71 67 365 365 365 365 364 364 220 220 220 14 14 14 14 306 306 306 306
 77 77 77 77 387 387 387 181 181 181 181 181 67 365 365 365 365 364 364 364
 220 14 14 14 14 14 14 306 306 306 77 77 77 85 387 387 387 181 181 181
 181 181 229 229 229 365 365 364 294 294 294 294 14 14 14 14 14 306 306 306
 41 85 85 85 85 387 387 181 181 181 181 45 229 229 229 229 229 294 294 294
 294 294 14 14 14 14 14 14 306 306 88 88 85 85 85 85 240 240 181 181
 45 45 229 229 229 229 284 284 294 294 294 294 336 336 336 14 14 14 306 125
 88 88 88 85 85 240 240 240 240 173 173 173 229 229 229 229 284 284 284 294
 294 336 336 336 336 336 14 14 125 125 88 88 88 240 240 240 240 240 240 173
 173 173 173 229 229 284 284 284 284 284 322 336 336 336 336 110 110 110 125 125
 248 88 88 240 240 240 240 240 240 173 173 173 173 173 106 106 284 284 284 284
 322 322 336 336 110 110 110 110 248 248 248 248 240 240 240 240 240 240 240 173
 173 173 173 185 321 106 106 284 284 322 322 322 322 110 110 110 110 110 248 248
 248 248 240 240 240 240 240 240 240 240 173 173 185 185 106 106 106 284 284 322
 322 322 322 110 110 110 110 110 248 248 296 296 296 240 240 240 240 240 240 243
 243 243 218 218 218 218 218 218 377 322 322 322 322 110 110 110 110 394 394 248
 296 296 296 296 240 240 240 240 243 243 243 243 218 218 218 218 218 218 377 377
 322 322 315 315 315 315 394 394 394 394 296 296 296 296 65 65 65 69 69 69
 243 218 218 218 218 218 218 218 377 377 74 74 315 315 315 315 394 394 394 394
 296 296 296 296 65 65 65 69 69 69 69 69 218 218 218 218 218 334 334 334
 74 74 74 315 315 315 394 394 394 394 296 296 296 296 65 65 69 69 69 69
 69 69 218 218 218 218 218 334 377 74 74 74 74 315 315 315 315 394 394 394
 296 296 296 296 401 401 69 69 69 69 69 69 218 218 218 218 218 334 377 74
 74 74 74 315 315 293 293 394 394 394 201 201 201 201 396 396 118 118 69 69
 69 204 204 204 376 262 262 262 377 148 148 148 148 324 324 293 293 293 2 2
 201 201 201 201 396 396 396 118 227 227 204 204 204 204 376 376 376 376 148 148
 148 148 148 148 293 293 324 324 2 201 201 201 201 201 396 396 396 227 227 227
 204 204 204 204 5 5 5 5 148 148 148 148 148 148 293 293 324 324 201 201
 201 201 201 201 396 396 29 29 29 29 29 204 204 204 241 241 241 241 221 221
 221 148 148 148 378 378 378 378 201 201 201 201 201 201 236 236 29 29 29 29
 29 204 204 204 241 241 241 221 221 221 221 148 148 257 378 378 378 378 201 201
 189 292 217 217 217 169 169 169 29 29 29 29 134 241 241 241 241 241 221 221
 221 257 257 257 257 257 378 191 191 189 189 292 217 217 217 169 169 169 384 29
 20 20 20 20 241 241 342 221 221 221 221 257 257 257 257 257 191 191 191 189
 189 292 217 217 217 217 169 384 48 48 20 20 20 20 342 342 342 160 160 160
 160 257 257 257 257 257 191 191 191 189 191 77 217 217 50 50 50 48 48 48
 20 20 20 20 329 342 342 160 160 160 160 160 257 257 257 191 191 191 191 191
 77 77 77 77 50 50 50 71 71 48 20 20 20 329 329 342 342 342 160 160
 160 160 258 258 258 191 191 191 191 191 77 77 77 77 50 50 50 71 71 71
 71 71 329 329 329 329 342 342 220 220 220 220 258 258 258 191 191 191 191 77
 77 77 77 77 50 50 50 71 71 71 71 71 329 329 329 329 329 220 220 220
 220 220 258 258 258 258 306 306 77 77 77 77 77 77 77 50 50 271 271 271
 271 271 329 302 302 365 365 220 220 220 220 220 220 258 258 306 306 306 306 77
 77 77 77 77 77 50 78 78 271 271 271 271 329 302 365 365 365 220 220 220
 220 220 220 14 14 306 306 306 306 77 77 77 77 77 77 78 78 78 78 271
 271 271 365 365 365 365 365 365 220 220 220 220 14 14 14 14 306 306 306 77
 77 77 77 77 351 351 78 78 78 181 181 181 365 365 365 365 365 365 364 220
 220 220 14 14 14 14 14 306 306 306 41 41 77 351 351 351 305 181 181 181
 181 45 229 229 365 365 365 294 294 294 294 294 14 14 14 14 14 14 306 306
 41 41 41 85 85 351 305 305 181 181 45 45 45 229 229 163 163 294 294 294
 294 294 294 14 14 14 14 200 200 306 41 41 41 85 85 240 305 305 305 181
 45 45 45 229 229 163 163 294 294 294 294 294 336 336 336 14 200 200 200 200
 41 41 41 85 240 240 240 240 240 173 45 45 229 229 229 163 284 284 294 294
 294 336 336 336 336 184 184 200 200 125 41 41 41 240 240 240 240 240 131 173
 173 173 173 185 185 163 284 284 284 294 294 336 336 336 336 184 184 184 125 125
 248 88 240 240 240 240 240 240 131 173 173 173 185 185 185 185 284 284 284 284
 373 373 336 336 110 110 110 110 248 248 248 248 240 240 240 240 240 240 240 240
 173 185 185 185 185 185 106 284 284 322 322 373 373 110 110 110 110 110 248 248
 248 248 240 240 240 240 240 240 240 131 173 185 185 185 185 185 106 55 284 322
 322 322 373 110 110 110 110 110 248 248 296 296 240 240 240 240 240 240 240 243
 243 218 218 218 218 218 218 377 377 377 322 322 373 110 110 110 110 110 394 248
 296 296 296 240 240 240 240 240 243 243 243 218 218 218 218 218 218 377 377 377
 377 74 315 315 315 315 394 394 394 394 296 296 296 296 209 285 285 69 69 69
 243 218 218 218 218 218 218 377 377 377 74 74 74 315 315 315 394 394 394 370
 296 296 296 209 209 285 118 69 69 69 69 69 218 218 218 218 218 377 377 377
 74 74 74 315 315 315 315 394 394 394 296 296 296 209 118 118 118 118 69 69
 69 69 218 218 218 218 218 377 377 377 74 74 74 74 315 315 315 394 394 394
 2 2 2 118 118 118 118 118 118 69 69 69 218 218 218 376 262 377 377 377
 74 74 74 74 324 293 293 293 394 2 2 2 2 396 396 396 118 118 118 227
 227 204 316 316 376 262 376 377 377 377 148 74 74 74 324 293 324 324 2 2
 2 2 201 396 396 396 396 118 227 227 227 204 316 316 262 376 376 377 377 148
 148 148 148 148 293 293 324 324 2 2 2 201 201 396 396 396 396 227 227 227
 227 204 204 316 316 376 376 5 148 148 148 148 148 148 94 94 94 94 2 2
 2 201 201 201 396 396 396 227 227 227 227 204 204 204 241 241 241 221 221 221
 221 148 148 148 94 94 94 2 2 2 2 201 201 217 396 169 169 169 29 29
 29 204 204 241 241 241 241 221 221 221 221 148 148 257 257 378 378 378 2 2
 189 217 217 217 217 169 169 169 169 29 134 134 134 134 241 241 241 241 221 221
 221 257 257 257 257 257 378 189 189 189 189 217 217 217 217 169 169 169 169 134
 134 134 134 134 241 342 342 342 221 221 221 257 257 257 257 257 191 191 189 189
 189 217 217 217 217 217 169 169 48 48 20 20 20 20 342 342 342 342 160 160
 160 257 257 257 257 257 398 398 189 189 189 217 217 217 217 217 50 48 48 48
 20 20 20 20 342 342 342 342 160 160 160 160 258 258 258 258 398 398 398 189
 77 77 77 77 50 50 50 50 48 48 20 20 20 20 342 342 342 342 160 160
 160 160 258 258 258 258 398 398 398 191 77 77 77 77 50 50 50 271 271 271
 271 271 329 302 302 342 342 342 220 220 220 258 258 258 258 258 191 191 77 77
 77 77 77 77 50 50 50 271 271 271 271 271 302 302 302 302 342 220 220 220
 220 258 258 258 258 258 258 77 77 77 77 77 77 77 77 50 50 271 271 271
 271 271 302 302 302 302 365 220 220 220 220 220 258 258 258 258 306 214 214 77
 77 77 77 77 77 78 78 78 271 271 271 271 302 302 302 365 365 220 220 220
 220 220 258 258 258 306 306 214 214 214 77 77 77 77 351 351 78 78 78 271
 271 271 302 302 365 365 365 365 220 220 220 43 363 363 14 14 214 214 214 214
 214 77 351 351 351 351 78 78 78 78 271 130 130 365 365 365 365 365 38 38