# vtk DataFile Version 2.0
Data set from IO Version 6.4.197.9a0dee2
ASCII

DATASET RECTILINEAR_GRID
DIMENSIONS 31 31 31
X_COORDINATES 31 float
-4.416667 4.416667 13.250000 22.083334 30.916666 39.749996 48.583332 57.416664 66.250000 75.083336 83.916664 92.750000 101.583336 110.416664 119.250000 128.083328 136.916656 145.749985 154.583328 163.416656 172.249985 
181.083328 189.916656 198.749985 207.583328 216.416656 225.249985 234.083313 242.916656 251.749985 260.583344 
Y_COORDINATES 31 float
-4.416667 4.416667 13.250000 22.083334 30.916666 39.749996 48.583332 57.416664 66.250000 75.083336 83.916664 92.750000 101.583336 110.416664 119.250000 128.083328 136.916656 145.749985 154.583328 163.416656 172.249985 
181.083328 189.916656 198.749985 207.583328 216.416656 225.249985 234.083313 242.916656 251.749985 260.583344 
Z_COORDINATES 31 float
-4.416667 4.416667 13.250000 22.083334 30.916666 39.749996 48.583332 57.416664 66.250000 75.083336 83.916664 92.750000 101.583336 110.416664 119.250000 128.083328 136.916656 145.749985 154.583328 163.416656 172.249985 
181.083328 189.916656 198.749985 207.583328 216.416656 225.249985 234.083313 242.916656 251.749985 260.583344 
CELL_DATA 27000
SCALARS FeatureIds int 1
LOOKUP_TABLE default
 62 62 62 177 177 250 228 228 228 104 98 98 98 98 98 199 372 372 372 372
 139 139 139 139 339 339 339 339 339 62 62 62 62 250 250 250 228 228 228 228
 98 98 98 98 98 372 372 372 372 372 139 139 139 139 339 339 339 339 339 339
 62 62 62 196 250 250 228 228 228 228 228 163 163 163 163 372 372 372 372 372
 139 139 139 139 339 339 339 339 339 339 220 220 220 196 196 196 228 228 228 228
 163 163 163 163 163 114 114 372 372 372 139 139 139 341 341 341 339 339 339 339
 220 220 220 220 196 196 196 228 228 275 163 163 163 163 163 114 114 114 114 114
 139 139 341 341 341 341 341 341 109 109 220 220 220 220 196 196 196 322 322 322
 163 163 163 163 163 114 114 114 114 297 297 297 341 341 341 341 341 341 109 109
 220 220 220 220 331 331 141 322 322 322 322 256 256 256 256 256 114 114 297 297
 297 297 318 341 341 341 341 341 219 219 219 220 331 331 331 331 331 322 322 322
 322 256 256 256 256 256 256 297 297 297 297 297 318 318 341 341 341 341 219 219
 219 331 331 331 331 331 331 71 128 322 322 256 256 256 256 256 256 297 297 297
 297 297 318 318 87 87 87 87 219 219 184 331 331 331 331 331 331 71 128 128
 322 256 256 256 40 40 40 297 297 297 297 297 318 87 87 87 87 24 24 184
 184 331 331 331 331 331 331 128 128 128 294 294 40 40 40 40 40 40 308 308
 308 308 316 316 87 87 24 24 24 24 272 272 331 331 331 331 331 128 128 294
 294 294 40 40 40 40 40 40 308 308 308 178 316 316 316 24 24 24 24 24
 272 272 272 272 343 343 343 343 294 294 294 294 40 40 40 40 40 40 308 308
 178 178 178 316 316 24 24 24 24 24 272 272 272 272 343 343 343 343 294 294
 294 294 294 40 40 40 40 40 40 178 178 178 178 178 178 270 270 270 24 272
 272 272 272 272 343 343 343 343 294 294 294 294 294 40 40 40 40 40 40 178
 178 178 178 178 270 270 270 270 24 272 272 272 272 272 343 343 343 313 294 294
 294 294 278 278 278 40 40 40 40 178 178 178 178 270 270 270 270 270 270 272
 272 334 334 350 350 350 313 313 313 294 294 294 278 278 278 40 40 40 359 359
 359 359 178 270 270 270 270 270 270 74 74 334 334 334 350 350 313 313 313 313
 381 276 276 278 278 40 359 359 359 359 359 359 359 270 270 270 238 238 74 74
 74 334 334 334 350 350 313 313 313 381 381 276 276 276 278 359 359 359 359 359
 359 359 359 270 5 5 5 74 74 74 74 74 334 334 350 304 304 304 381 381
 381 276 276 276 172 359 359 359 359 359 359 359 359 5 5 5 5 74 74 74
 7 268 268 41 41 304 304 304 381 381 381 381 172 172 172 172 359 359 359 359
 359 359 359 359 5 5 5 5 7 7 7 268 268 41 41 41 304 381 381 381
 381 381 172 172 172 172 359 359 359 359 359 359 359 359 5 5 5 7 7 7
 7 268 78 41 41 41 41 381 381 381 381 381 172 172 172 43 43 43 359 359
 359 359 359 285 285 285 285 285 7 7 7 78 78 41 41 41 329 381 381 381
 381 381 172 172 172 43 43 43 43 43 359 217 217 285 285 285 285 285 285 7
 195 195 78 78 41 329 329 329 358 358 358 358 172 172 43 43 43 43 43 43
 43 217 285 285 285 285 285 285 285 285 195 195 195 78 329 329 329 329 358 358
 358 358 98 43 43 43 43 43 43 123 123 123 285 285 285 285 285 285 285 285
 195 195 195 329 329 329 329 329 358 358 358 98 98 98 98 43 43 43 43 123
 123 123 123 285 285 285 285 285 285 37 62 62 195 366 366 329 329 104 104 104
 98 98 98 98 98 43 43 43 123 123 123 123 123 58 285 285 285 285 62 62
 62 62 62 177 177 329 104 104 104 104 98 98 98 98 98 199 199 43 123 123
 123 123 123 58 285 285 285 62 62 62 62 62 62 177 177 177 104 104 104 104
 98 98 98 98 98 199 199 372 123 123 123 123 123 58 285 339 339 339 62 62
 62 62 177 177 177 177 228 228 228 228 98 98 98 98 98 199 372 372 372 372
 139 139 139 139 339 339 339 339 62 62 62 62 62 177 177 228 228 228 228 228
 98 98 98 98 98 372 372 372 372 372 139 139 139 139 339 339 339 339 339 62
 109 62 196 196 196 196 228 228 228 228 98 163 163 163 163 372 372 372 372 372
 139 139 139 254 339 339 339 339 339 339 109 220 220 196 196 196 196 228 228 228
 275 163 163 163 163 114 114 114 372 372 139 254 254 341 341 339 339 109 109 109
 220 220 220 196 196 196 196 196 275 275 275 163 163 163 163 114 114 114 114 240
 240 240 341 341 341 341 109 109 109 109 220 220 220 220 196 196 196 196 275 275
 275 163 163 163 256 114 114 114 114 240 240 240 288 288 341 341 341 109 109 109
 220 220 220 220 141 141 141 141 322 322 322 256 256 256 256 256 114 114 297 240
 240 240 288 288 288 341 341 109 109 109 184 220 331 331 331 141 141 141 322 322
 322 256 256 256 256 256 256 297 297 240 240 240 288 288 288 87 87 109 109 184
 184 184 331 331 331 331 71 71 128 322 322 256 256 256 256 256 256 297 297 297
 297 134 318 87 87 87 87 87 184 184 184 184 331 331 331 331 71 71 128 128
 322 256 256 256 256 256 40 40 308 308 308 134 87 87 87 87 87 87 184 184
 184 331 331 331 331 331 331 128 128 128 128 364 364 364 40 40 40 40 308 308
 308 308 316 316 87 87 87 24 184 184 184 331 331 331 331 331 331 128 128 128
 294 294 364 364 364 40 40 40 308 308 308 178 316 316 316 87 87 24 24 184
 272 272 272 331 331 379 379 128 294 294 294 294 364 364 364 40 40 40 308 308
 308 178 316 316 316 87 24 24 24 24 272 272 272 272 379 379 379 379 294 294
 294 294 364 364 40 40 40 40 40 178 178 178 178 178 270 270 270 270 24 272
 272 272 272 272 343 379 379 294 294 294 294 294 364 364 40 40 40 40 154 154
 178 178 178 178 270 270 270 270 270 272 272 272 272 102 102 313 313 313 294 294
 294 294 278 278 40 40 40 40 154 154 154 178 178 270 270 270 270 270 270 214
 74 334 334 350 350 313 313 313 313 294 294 294 278 278 278 40 40 40 154 154
 154 178 178 270 270 270 270 270 270 74 74 74 334 334 350 350 313 313 313 313
 381 14 276 278 278 40 359 359 359 359 359 359 359 270 270 270 270 74 74 74
 74 74 334 334 350 313 313 313 313 381 381 14 276 276 172 359 359 359 359 359
 359 359 359 5 5 5 5 74 74 74 74 74 74 334 350 304 304 304 304 381
 381 14 172 172 172 172 359 359 359 359 359 359 359 5 5 5 5 74 74 74
 7 268 268 268 41 304 304 304 381 381 381 381 172 172 172 172 359 359 359 359
 359 359 359 72 5 5 5 74 7 7 7 268 268 41 41 41 304 381 381 381
 381 381 172 172 172 172 359 359 359 359 359 359 359 72 72 5 5 7 7 7
 7 268 268 41 41 41 41 381 381 381 381 381 172 172 172 172 43 359 359 359
 359 359 292 285 285 285 285 285 7 7 7 78 41 41 41 41 329 381 381 381
 381 381 172 172 172 43 43 43 43 292 292 292 292 285 285 285 285 285 285 7
 195 195 195 41 329 329 329 329 358 358 358 381 172 172 43 43 43 43 43 43
 292 292 285 285 285 285 285 285 285 7 195 195 195 329 329 329 329 329 358 358
 358 358 98 98 158 158 158 158 158 123 123 123 285 285 285 285 285 285 285 195
 195 195 195 329 329 329 329 329 358 358 358 98 98 98 98 158 158 158 17 123
 123 123 285 285 285 285 285 285 285 37 62 62 195 329 329 329 329 329 104 98
 98 98 98 98 98 158 158 158 17 123 123 123 123 285 285 285 285 285 62 62
 62 62 62 177 177 177 177 104 104 98 98 98 98 98 98 199 199 17 17 123
 123 123 123 285 285 285 285 62 62 62 62 62 177 177 177 177 177 228 228 98
 98 98 98 98 98 199 199 372 372 123 123 123 123 285 285 339 339 62 62 62
 62 62 177 177 177 177 228 228 228 98 98 98 98 98 98 199 372 372 372 372
 372 254 254 254 339 339 339 62 62 62 62 62 177 177 177 177 228 228 228 228
 98 98 98 98 98 372 372 372 372 372 372 254 254 254 254 339 339 339 62 62
 109 109 196 196 196 196 196 228 228 228 98 163 163 163 163 372 372 372 372 372
 254 254 254 254 254 109 109 109 109 109 109 109 196 196 196 196 196 196 275 275
 275 163 163 163 163 163 114 372 372 240 254 254 254 254 109 109 109 109 109 109
 109 220 220 196 196 196 196 196 275 275 275 163 163 163 163 114 114 114 114 240
 240 240 254 288 341 109 109 109 109 109 220 220 220 196 196 196 196 275 275 275
 275 275 163 163 256 114 114 114 114 240 240 240 288 288 288 109 109 109 109 109
 109 220 220 196 141 141 141 141 275 275 275 275 256 256 256 256 114 114 240 240
 240 240 288 288 288 288 109 109 109 109 184 184 331 331 141 141 141 141 322 322
 322 256 256 256 256 256 256 114 240 240 240 240 288 288 288 87 109 109 109 184
 184 184 331 331 331 331 141 71 322 322 322 256 256 256 256 256 256 297 240 240
 134 134 134 288 87 87 87 184 184 184 184 184 331 331 331 331 71 71 128 128
 322 256 256 256 256 40 40 308 308 308 134 134 134 87 87 87 87 184 184 184
 184 184 331 331 331 331 331 128 128 128 128 364 364 364 364 40 40 308 308 308
 308 134 316 316 87 87 87 184 184 184 184 184 331 331 331 331 331 128 128 128
 294 364 364 364 364 364 40 40 308 308 308 178 316 316 316 87 87 184 184 184
 272 272 331 331 379 379 379 379 294 294 294 364 364 364 364 364 40 40 308 308
 308 178 316 316 316 87 270 24 24 184 214 272 272 379 379 379 379 379 294 294
 294 294 364 364 364 364 40 40 154 154 154 178 178 178 270 270 270 270 214 214
 214 214 272 102 379 379 379 379 294 294 294 294 364 364 364 40 40 40 154 154
 154 178 178 270 270 270 270 270 214 214 214 214 102 102 102 379 379 313 313 294
 294 294 364 278 40 40 40 154 154 154 154 154 178 270 270 270 270 270 214 214
 214 214 102 102 102 102 313 313 313 313 14 14 14 376 376 376 376 154 154 154
 154 154 270 270 270 270 270 270 214 214 74 74 102 102 102 102 313 313 313 313
 14 14 14 376 376 376 376 359 154 154 154 359 270 270 270 270 270 74 74 74
 74 74 74 334 102 313 313 313 313 381 14 14 14 376 376 376 376 359 359 359
 359 359 72 72 5 5 5 74 74 74 74 74 74 74 102 304 304 304 304 381
 14 14 14 172 172 376 359 359 359 359 359 359 72 72 5 5 5 74 74 74
 74 74 74 41 41 304 304 304 381 381 381 14 172 172 172 172 359 359 359 359
 359 359 72 72 72 5 5 74 74 74 7 268 268 41 41 41 304 381 381 381
 381 381 172 172 172 172 359 359 359 359 359 359 72 72 72 72 72 7 7 7
 7 268 268 41 41 41 41 381 381 381 381 381 172 172 172 172 315 315 359 359
 292 292 292 72 72 285 285 285 7 7 7 268 41 41 41 41 329 381 381 381
 381 381 172 172 172 158 158 158 292 292 292 292 292 285 285 285 285 285 285 7
 195 195 195 41 329 329 329 329 358 358 358 381 172 172 158 158 158 158 158 292
 292 292 292 285 285 285 285 285 285 7 195 195 195 329 329 329 329 329 358 358
 358 358 98 158 158 158 158 158 158 17 17 292 285 285 285 285 285 285 285 195
 195 195 195 329 329 329 329 329 324 358 98 98 98 98 158 158 158 158 17 17
 17 17 285 285 285 285 285 285 285 285 62 62 195 177 329 329 329 267 324 98
 98 98 98 98 98 158 158 158 17 17 17 17 285 285 285 285 285 285 62 62
 62 62 177 177 177 177 177 228 98 98 98 98 98 98 98 199 158 17 17 17
 17 17 285 285 285 285 285 62 62 62 62 62 177 177 177 177 177 228 228 98
 98 98 98 98 98 199 199 372 17 17 17 17 285 285 285 285 339 62 62 62
 62 62 177 177 177 177 177 228 228 216 98 98 98 98 98 67 372 372 372 372
 254 254 254 254 254 339 339 62 62 62 62 62 196 196 196 196 196 228 228 216
 216 98 98 67 67 67 372 372 372 372 254 254 254 254 254 109 109 109 109 109
 109 109 196 196 196 196 196 196 228 216 216 67 67 67 67 67 372 372 372 57
 254 254 254 254 254 109 109 109 109 109 109 109 196 196 196 196 196 196 275 275
 275 163 163 163 163 163 114 372 57 57 57 254 254 254 254 109 109 109 109 109
 109 109 196 196 196 196 196 196 275 275 275 275 163 163 163 114 114 114 57 57
 240 240 254 254 109 109 109 109 109 109 109 109 220 196 196 196 196 275 275 275
 275 275 163 163 256 114 114 114 240 240 240 240 288 288 288 109 109 109 109 109
 109 109 220 196 141 141 141 141 275 275 275 275 256 256 256 54 54 114 240 240
 240 240 288 288 288 109 109 109 109 109 184 184 331 331 141 141 141 141 275 275
 275 275 256 256 256 256 54 249 249 249 240 240 288 288 288 109 109 109 109 184
 184 184 331 331 331 141 141 141 322 322 322 256 256 256 256 54 54 54 249 249
 134 134 134 288 87 87 290 184 184 184 184 184 331 331 331 331 71 71 128 327
 327 364 364 256 364 364 364 81 308 134 134 134 134 87 87 87 290 184 184 184
 184 184 331 331 331 331 331 128 128 327 327 364 364 364 364 364 364 308 308 308
 134 134 134 316 87 87 290 184 184 184 184 184 331 331 331 379 379 328 328 327
 294 364 364 364 364 364 364 40 308 308 308 134 316 316 316 87 290 290 184 184
 214 184 331 331 379 379 379 379 328 294 294 364 364 364 364 364 364 40 308 308
 308 178 316 316 316 87 290 290 184 184 214 214 379 379 379 379 379 379 379 294
 294 364 364 364 364 364 40 40 154 154 154 154 178 266 270 270 270 214 214 214
 214 214 102 102 379 379 379 379 379 294 294 364 364 364 364 364 40 154 154 154
 154 154 154 270 270 270 270 214 214 214 214 214 102 102 102 379 379 76 76 294
 294 364 364 376 376 376 376 154 154 154 154 154 154 270 270 270 270 214 214 214
 214 214 102 102 102 102 76 76 76 76 14 14 376 376 376 376 376 376 154 154
 154 154 154 270 270 270 270 214 214 214 74 74 102 102 102 102 76 76 76 76
 14 14 14 376 376 376 376 376 154 154 154 154 154 270 270 270 74 74 74 74
 74 74 74 102 102 76 76 76 76 14 14 14 14 376 376 376 376 376 359 359
 359 359 72 72 72 72 74 74 74 74 74 74 74 74 102 304 304 76 76 14
 14 14 14 14 376 376 376 376 359 359 359 359 72 72 72 72 74 74 74 74
 74 74 74 74 41 304 304 304 381 381 14 14 14 172 172 376 376 359 359 359
 359 359 72 72 72 72 72 74 74 74 74 74 74 41 41 41 304 381 381 381
 381 14 172 172 172 172 315 315 359 359 292 292 72 72 72 72 72 74 74 74
 74 74 74 41 41 41 41 381 381 381 381 307 172 172 172 172 315 315 315 292
 292 292 292 72 72 72 269 285 74 74 74 175 175 41 41 41 329 324 324 381
 381 307 307 172 172 315 315 315 315 292 292 292 292 292 285 285 285 285 285 7
 195 195 195 41 329 329 329 324 324 324 324 324 307 172 158 158 158 158 158 292
 292 292 292 285 285 285 285 285 285 285 195 195 195 329 329 329 329 324 324 324
 324 324 324 158 158 158 158 158 158 17 17 292 285 285 285 285 285 285 285 285
 195 195 195 329 329 329 267 324 324 324 324 98 98 98 158 158 158 158 17 17
 17 17 285 285 285 285 285 285 285 62 62 62 195 177 177 329 267 267 324 324
 98 98 98 98 158 158 158 158 17 17 17 17 210 210 285 285 285 285 62 62
 62 62 177 177 177 177 267 267 267 98 98 98 98 98 98 158 158 17 17 17
 17 17 210 210 285 285 285 62 62 62 62 62 177 177 177 177 177 267 228 98
 98 98 98 98 98 98 199 17 17 17 17 17 210 210 285 285 62 62 62 62
 336 336 336 177 177 196 196 196 216 216 216 98 67 67 67 67 67 372 69 57
 57 254 254 254 254 129 129 129 129 62 109 109 336 196 196 196 196 196 216 216
 216 67 67 67 67 67 67 372 57 57 57 254 254 254 254 109 109 109 109 109
 109 109 109 196 196 196 196 196 216 216 216 67 67 67 67 67 67 57 57 57
 57 254 254 254 254 109 109 109 109 109 109 109 196 196 196 196 196 196 216 216
 216 67 67 67 67 67 57 57 57 57 57 254 254 254 60 109 109 109 109 109
 109 109 109 196 196 196 196 196 275 275 275 275 163 163 67 67 57 57 57 57
 57 57 60 60 60 60 109 109 109 109 109 109 109 196 196 196 196 125 275 275
 275 275 275 54 54 54 54 57 57 57 240 240 60 60 60 60 109 109 109 109
 109 109 49 49 141 141 141 125 275 275 275 275 275 54 54 54 54 249 249 249
 249 249 288 288 60 60 109 109 109 109 184 184 49 49 49 141 141 191 275 275
 275 275 256 54 54 54 54 249 249 249 249 249 288 288 60 60 290 290 109 184
 184 184 49 49 49 49 49 191 327 327 327 327 54 54 54 54 54 54 249 249
 249 134 134 288 87 290 290 290 184 184 184 184 49 49 49 49 49 49 327 327
 327 327 54 54 54 54 54 81 249 249 134 134 134 134 87 290 290 290 184 184
 184 184 49 49 49 49 49 328 327 327 327 327 364 364 218 218 81 81 81 134
 134 134 134 134 87 290 290 290 184 184 184 184 331 49 49 49 328 328 328 327
 327 364 364 364 218 218 218 81 81 308 134 134 134 266 290 290 290 290 290 184
 214 214 331 379 379 379 379 328 328 328 294 364 364 364 218 218 218 218 154 154
 154 266 266 266 266 290 290 290 214 214 214 214 214 379 379 379 379 379 328 328
 294 364 364 364 218 218 218 218 154 154 154 314 266 266 266 266 214 214 214 214
 214 214 214 102 379 379 379 379 76 294 294 364 364 364 376 376 376 154 154 154
 154 314 266 266 266 258 214 214 214 214 214 214 102 102 102 198 76 76 76 76
 294 376 376 376 376 376 376 376 154 154 154 314 314 258 258 258 214 214 214 214
 214 214 102 102 102 102 76 76 76 76 14 14 376 376 376 376 376 376 154 154
 154 154 154 270 258 258 214 214 214 214 214 214 102 102 102 76 76 76 76 76
 14 14 376 376 376 376 376 376 154 154 154 154 154 72 270 258 214 214 214 214
 74 74 74 102 102 76 76 76 76 76 14 14 14 376 376 376 376 376 376 154
 154 154 72 72 72 72 74 74 74 74 74 74 74 74 102 76 76 76 76 76
 14 14 14 376 376 376 376 376 68 68 68 68 72 72 72 72 72 74 74 74
 74 74 74 74 74 76 76 76 381 381 14 14 14 376 376 376 376 376 68 68
 68 68 72 72 72 72 72 74 74 74 74 74 74 74 41 333 333 333 381 381
 307 307 307 172 172 376 376 68 68 68 68 68 72 72 72 72 72 74 74 74
 74 175 175 175 41 333 333 324 381 381 307 307 307 307 65 315 315 315 315 68
 292 292 292 72 72 269 269 269 34 34 175 175 175 175 80 41 324 324 324 324
 307 307 307 307 307 315 315 315 315 68 292 292 292 292 285 269 269 269 34 34
 34 175 175 80 80 80 324 324 324 324 324 307 307 307 158 158 158 315 315 292
 292 292 292 292 285 285 285 285 34 34 34 195 195 80 80 80 324 324 324 324
 324 324 307 158 158 158 158 158 158 17 17 292 210 210 285 285 285 285 285 34
 195 195 80 80 80 267 267 267 324 324 324 324 98 98 158 158 158 158 17 17
 17 210 210 210 210 285 285 285 285 62 336 336 336 177 177 267 267 267 267 324
 324 98 98 98 158 158 158 158 17 17 17 17 210 210 210 210 285 129 129 62
 336 336 336 177 177 177 267 267 267 98 98 98 98 98 98 158 158 158 17 17
 17 17 210 210 210 210 129 129 129 62 336 336 336 177 177 177 267 267 216 216
 98 98 98 67 67 67 158 158 17 17 17 17 210 210 210 210 129 129 129 62
 336 336 336 344 344 196 196 216 216 216 216 67 67 67 67 67 67 67 69 69
 69 254 254 136 136 129 129 129 129 129 109 336 336 344 344 196 196 216 216 216
 216 67 67 67 67 67 67 67 69 69 57 254 254 254 136 129 129 109 109 109
 109 205 205 196 196 196 196 216 216 216 216 67 67 67 67 67 67 57 57 57
 57 254 254 254 60 109 109 109 109 109 109 205 205 196 196 196 196 196 216 216
 216 67 67 67 67 67 67 57 57 57 57 57 254 60 60 60 109 109 109 109
 109 109 205 196 196 196 196 125 125 275 275 275 67 67 67 67 57 57 57 57
 57 57 60 60 60 60 109 109 109 109 109 109 205 196 196 196 125 125 125 275
 275 275 257 54 54 54 94 57 57 57 57 57 60 60 60 60 60 109 109 109
 109 109 49 49 49 49 191 125 125 275 275 275 54 54 54 94 94 249 249 249
 249 249 60 60 60 60 60 109 109 109 184 184 49 49 49 49 191 191 191 275
 275 275 54 54 54 54 54 249 249 249 249 249 60 60 60 60 290 290 290 109
 184 49 49 49 49 49 49 191 327 327 327 327 54 54 54 54 54 81 249 249
 249 249 6 6 6 290 290 290 290 184 184 184 49 49 49 49 49 49 327 327
 327 327 327 54 54 54 81 81 81 81 249 249 6 6 6 290 290 290 290 184
 184 184 49 49 49 49 328 328 327 327 327 327 218 218 218 218 81 81 81 81
 81 6 6 6 6 290 290 290 290 184 184 184 49 49 49 49 328 328 328 327
 327 218 218 218 218 218 218 81 81 81 81 6 6 6 6 290 290 290 290 184
 214 214 367 49 379 379 328 328 328 328 51 218 218 218 218 218 218 81 81 81
 314 266 266 266 266 159 159 159 159 214 214 214 214 379 379 379 379 328 328 328
 51 218 218 218 218 218 218 218 154 154 314 314 266 266 266 159 159 159 214 214
 214 214 214 198 198 198 198 198 76 76 225 218 218 218 218 376 376 376 154 154
 314 314 266 266 266 258 159 214 214 214 214 214 214 198 198 198 198 76 76 76
 83 83 83 376 376 376 376 376 154 154 314 314 314 258 258 258 258 214 214 214
 214 214 214 102 198 198 76 76 76 76 83 83 83 376 376 376 376 376 154 154
 314 314 314 258 258 258 258 214 214 214 214 214 214 36 36 76 76 76 76 76
 83 83 83 376 376 376 376 376 376 154 314 314 314 258 258 258 258 214 214 214
 74 74 74 36 76 76 76 76 76 76 83 83 83 376 376 376 376 376 376 68
 68 68 68 72 72 72 258 74 74 74 74 74 74 36 36 76 76 76 76 76
 14 14 83 376 376 376 376 376 68 68 68 68 68 72 72 72 72 74 74 74
 74 74 74 74 36 333 333 333 333 333 14 14 14 376 376 376 376 68 68 68
 68 68 68 72 72 72 72 74 74 74 74 74 74 74 333 333 333 333 333 333
 333 307 307 307 65 65 68 68 68 68 68 68 68 72 72 72 269 269 74 74
 175 175 175 175 333 333 333 333 333 333 307 307 307 307 65 65 65 315 68 68
 68 68 68 72 72 269 269 269 34 34 34 175 175 175 80 333 333 333 324 324
 307 307 307 307 65 65 315 315 315 68 68 292 292 292 269 269 269 269 34 34
 34 175 175 80 80 80 324 324 324 324 324 307 307 307 65 65 315 315 315 68
 68 292 292 164 164 269 269 269 34 34 34 175 80 80 80 80 324 324 324 324
 324 324 307 307 158 158 158 158 158 17 371 371 210 210 164 164 285 285 34 34
 34 175 80 80 80 80 267 267 324 324 324 324 307 307 158 158 158 158 158 17
 371 371 210 210 210 210 285 285 323 323 336 336 336 80 80 267 267 267 267 324
 324 324 98 98 158 158 158 158 17 17 371 371 210 210 210 210 210 129 129 323
 336 336 336 336 267 267 267 267 267 98 98 98 98 98 98 158 158 158 17 17
 371 371 210 210 210 210 129 129 129 129 336 336 336 336 375 375 267 267 216 216
 216 98 67 67 67 67 67 262 17 17 17 371 210 210 210 210 129 129 129 336
 336 336 336 344 344 375 375 216 216 216 216 67 67 67 67 67 262 262 69 69
 69 69 136 136 136 166 166 166 166 166 336 336 336 344 344 344 196 216 216 216
 216 67 67 67 67 67 262 262 69 69 69 69 136 136 136 136 166 166 109 109
 205 205 205 344 344 344 161 216 216 216 216 67 67 67 67 67 262 57 57 57
 57 57 136 136 286 286 286 109 109 109 205 205 205 205 196 196 161 161 216 216
 216 67 67 67 67 67 67 57 57 57 57 57 60 60 286 286 286 109 109 109
 205 205 205 205 196 161 161 125 3 3 3 67 257 257 257 67 94 57 57 57
 57 57 60 60 60 60 60 109 109 109 109 109 205 49 196 161 125 125 3 3
 3 3 257 257 54 94 94 94 57 57 57 60 60 60 60 60 60 109 109 109
 109 107 107 49 49 49 125 125 125 3 3 3 54 54 54 94 94 249 249 249
 249 249 60 60 60 60 60 290 109 109 184 107 107 49 49 49 49 191 191 191
 327 54 54 54 54 54 94 54 249 249 249 249 60 60 60 60 290 290 290 290
 107 107 49 49 49 49 49 118 327 327 327 327 54 54 54 54 54 81 81 249
 249 6 6 6 6 290 290 290 290 290 184 49 49 49 49 49 49 118 327 327
 327 327 54 54 54 54 81 81 81 81 81 6 6 6 6 290 290 290 290 290
 184 49 49 49 49 49 49 118 118 327 51 51 51 218 218 81 81 81 81 81
 81 6 6 6 6 290 290 290 290 290 184 367 367 367 367 49 328 328 328 327
 51 51 51 218 218 218 81 81 81 81 81 6 6 6 6 290 290 290 159 159
 214 214 367 367 367 49 328 328 328 328 51 51 218 218 218 218 218 81 81 81
 81 266 266 266 266 159 159 159 159 159 214 214 214 198 198 198 198 198 328 225
 51 51 218 218 218 218 218 81 81 314 314 314 266 266 266 159 159 159 159 214
 214 214 214 198 198 198 198 198 198 225 225 83 83 218 218 376 376 376 154 314
 314 314 314 258 258 258 159 159 214 214 214 214 36 198 198 198 198 198 76 76
 83 83 83 376 376 376 376 376 376 314 314 314 314 258 258 258 258 214 214 214
 214 214 36 36 198 198 198 76 76 76 83 83 83 376 376 376 376 376 376 314
 314 314 314 258 258 258 258 214 214 214 214 211 211 36 36 198 76 76 76 76
 83 83 83 83 376 376 376 376 376 314 314 314 314 258 258 258 258 214 214 214
 214 211 211 36 36 76 76 76 76 83 83 83 83 83 376 376 376 376 68 68
 68 68 68 258 258 258 258 214 214 214 74 74 36 36 36 36 76 76 333 333
 83 83 83 83 376 376 376 68 68 68 68 68 68 72 72 72 72 74 74 74
 74 74 36 36 36 333 333 333 333 333 333 83 83 83 376 376 376 68 68 68
 68 68 68 72 72 72 72 74 74 74 74 74 74 36 333 333 333 333 333 333
 333 333 307 65 65 65 68 68 68 68 68 68 68 72 72 269 269 269 74 74
 34 175 175 175 333 333 333 333 333 333 333 307 307 65 65 65 65 68 68 68
 68 68 68 68 269 269 269 269 34 34 34 175 175 175 80 333 333 333 333 333
 307 307 307 65 65 65 65 68 68 68 68 68 68 164 164 269 269 269 34 34
 34 175 175 80 80 80 333 324 324 324 324 307 307 65 65 65 65 65 68 68
 68 164 164 164 164 164 269 269 34 34 34 175 80 80 80 80 324 324 324 324
 324 324 307 65 65 65 65 65 158 371 371 371 164 164 164 164 269 269 323 34
 323 323 80 80 80 80 267 267 324 324 324 324 307 65 65 158 158 158 158 371
 371 371 371 164 164 164 164 323 323 323 323 323 80 80 80 80 267 267 267 324
 324 324 324 98 158 158 158 158 167 371 371 371 371 210 210 210 210 166 323 323
 336 336 336 80 375 375 267 267 267 324 324 98 98 67 67 262 262 262 167 167
 371 371 371 210 210 210 166 166 166 323 336 336 336 336 375 375 375 267 216 216
 216 98 67 67 67 67 262 262 167 167 167 371 371 210 210 210 166 166 166 166
 336 336 336 344 375 375 375 180 180 180 180 67 67 67 67 262 262 262 69 69
 69 69 136 136 136 136 166 166 166 166 361 361 361 344 344 344 375 180 180 180
 180 67 67 67 67 262 262 262 69 69 69 69 136 136 136 136 166 166 166 338
 205 205 205 344 344 344 161 161 180 180 180 67 67 67 67 67 262 262 69 69
 69 69 136 136 286 286 286 286 109 109 205 205 205 361 344 161 161 161 161 180
 180 67 67 67 67 67 262 57 57 69 69 57 136 286 286 286 286 286 109 109
 205 205 205 361 361 161 161 161 3 3 3 3 257 257 257 257 94 57 57 57
 57 60 60 60 60 286 286 286 109 109 23 361 361 361 161 161 161 161 3 3
 3 3 257 257 257 94 94 70 57 57 57 60 60 60 60 60 60 109 23 23
 23 107 107 107 49 49 49 125 3 3 3 3 257 257 54 54 94 94 249 249
 249 60 60 60 60 60 60 290 23 23 23 107 107 107 49 49 49 118 118 3
 3 3 54 54 54 54 54 81 81 249 249 6 6 60 60 60 290 290 23 23
 107 107 107 49 49 49 118 118 118 118 327 327 54 54 54 54 54 81 81 81
 81 6 6 6 6 6 290 290 290 23 107 107 107 49 49 49 118 118 118 118
 327 51 54 54 54 54 81 81 81 81 81 6 6 6 6 6 290 290 290 290
 107 107 367 367 49 49 118 118 118 118 51 51 51 54 218 81 81 81 81 81
 81 6 6 6 6 6 290 290 290 290 159 367 367 367 367 49 118 118 118 225
 51 51 51 218 218 81 81 81 81 81 81 6 6 6 6 159 159 159 159 159
 159 159 367 367 367 49 328 225 225 225 51 51 51 218 218 218 105 81 81 81
 81 314 258 258 258 159 159 159 159 159 214 214 367 198 198 198 198 198 225 225
 225 225 51 218 218 105 105 105 105 314 314 314 258 258 258 258 159 159 159 159
 214 214 36 198 198 198 198 198 225 225 225 225 83 218 218 105 105 105 105 314
 314 314 314 258 258 258 159 159 159 214 214 214 36 36 198 198 198 198 225 83
 83 83 83 376 376 376 376 376 376 314 314 314 314 258 258 258 258 159 214 214
 214 211 36 36 198 198 198 198 76 83 83 83 83 83 376 376 376 376 376 314
 314 314 314 258 258 258 258 258 214 214 214 211 211 36 36 36 198 76 76 83
 83 83 83 83 376 376 376 376 376 314 314 314 258 258 258 258 258 258 214 214
 214 211 36 36 36 36 76 76 76 83 83 83 83 83 376 376 376 376 68 68
 68 68 258 258 258 258 258 258 214 214 74 36 36 36 36 36 333 333 333 333
 83 83 83 83 83 376 376 68 68 68 68 68 68 258 258 258 258 258 74 74
 74 36 36 36 36 36 333 333 333 333 333 83 83 83 83 376 68 68 68 68
 68 68 68 68 72 72 72 74 74 74 74 36 36 36 36 333 333 333 333 333
 333 333 83 83 65 65 68 68 68 68 68 68 68 68 72 269 269 269 197 74
 34 175 116 116 333 333 333 333 333 333 333 333 307 65 65 65 65 68 68 68
 68 68 68 68 164 269 269 269 34 34 34 175 175 175 333 333 333 333 333 333
 333 333 307 65 65 65 65 68 68 68 68 68 164 164 164 269 269 269 34 34
 34 175 116 80 80 333 333 333 333 333 324 324 307 65 65 65 65 65 68 68
 68 164 164 164 164 164 269 269 34 34 323 110 80 80 80 80 333 324 324 324
 324 324 307 65 65 65 65 65 68 371 371 371 164 164 164 164 164 121 323 323
 323 323 332 80 80 80 267 267 324 324 324 324 324 65 65 65 65 65 371 371
 371 371 371 164 164 164 164 323 323 323 323 332 332 332 332 375 267 267 324 324
 324 324 324 152 262 262 262 262 167 371 371 371 371 371 210 210 166 166 323 323
 323 336 332 332 375 375 375 267 267 324 324 264 264 67 262 262 262 262 167 167
 371 371 371 371 210 210 166 166 166 323 336 336 336 375 375 375 375 375 180 180
 264 264 264 67 67 262 262 262 167 167 167 371 371 371 210 166 166 166 166 166
 361 144 144 144 144 375 375 180 180 180 180 264 264 67 67 262 262 262 262 69
 69 69 136 136 260 260 166 166 166 338 361 361 144 144 144 144 375 180 180 180
 180 180 67 67 67 262 262 262 262 69 69 69 136 136 260 260 260 166 338 338
 361 361 361 144 144 161 161 161 180 180 180 180 93 93 67 262 262 262 69 69
 69 69 136 136 260 260 286 286 361 361 361 361 361 361 144 161 161 161 161 180
 180 180 93 93 93 93 262 262 69 69 69 69 362 286 286 286 286 286 286 361
 361 361 361 361 361 161 161 161 319 319 319 319 257 257 257 70 70 70 70 69
 69 60 60 60 286 286 286 286 361 361 23 361 361 361 361 161 161 161 319 319
 319 3 257 257 257 70 70 70 70 70 70 60 60 60 60 60 60 60 23 23
 23 107 107 107 107 161 161 161 319 319 319 319 257 257 257 54 70 70 70 70
 70 60 60 60 60 19 19 23 23 23 23 107 107 107 107 49 119 119 119 319
 319 319 54 54 54 54 54 81 81 73 73 6 6 6 19 19 19 290 23 23
 23 107 107 107 49 49 119 119 119 119 360 360 54 54 54 54 81 81 81 73
 73 6 6 6 6 19 19 290 23 23 23 107 107 49 49 49 119 118 118 119
 119 51 51 54 54 81 81 81 81 73 73 6 6 6 6 6 290 290 23 23
 137 107 367 367 49 49 118 118 119 119 51 51 51 51 81 81 81 81 81 81
 81 6 6 6 6 6 290 290 137 137 137 137 367 367 367 49 118 118 225 225
 51 51 51 51 105 105 105 81 81 81 81 6 6 6 6 159 159 159 137 137
 137 137 367 367 367 367 225 225 225 225 225 51 51 218 105 105 105 105 105 81
 81 314 258 258 258 159 159 159 159 137 214 214 36 36 198 198 198 225 225 225
 225 225 51 105 105 105 105 105 105 314 314 314 258 258 258 258 159 159 159 159
 214 36 36 36 198 198 198 198 225 225 225 225 225 99 105 105 105 105 105 314
 314 314 258 258 258 258 159 159 159 159 214 36 36 36 198 198 198 198 225 225
 83 83 83 99 99 99 105 105 59 59 314 314 258 258 258 258 258 258 159 214
 36 36 36 36 36 198 198 198 76 83 83 83 83 99 99 99 376 376 59 59
 314 314 258 258 258 258 258 258 214 214 36 36 36 36 36 36 198 198 76 83