# vtk DataFile Version 2.0
Data set from IO Version 6.4.197.9a0dee2
ASCII

DATASET RECTILINEAR_GRID
DIMENSIONS 31 31 31
X_COORDINATES 31 float
-4.416667 4.416667 13.250000 22.083334 30.916666 39.749996 48.583332 57.416664 66.250000 75.083336 83.916664 92.750000 101.583336 110.416664 119.250000 128.083328 136.916656 145.749985 154.583328 163.416656 172.249985 
181.083328 189.916656 198.749985 207.583328 216.416656 225.249985 234.083313 242.916656 251.749985 260.583344 
Y_COORDINATES 31 float
-4.416667 4.416667 13.250000 22.083334 30.916666 39.749996 48.583332 57.416664 66.250000 75.083336 83.916664 92.750000 101.583336 110.416664 119.250000 128.083328 136.916656 145.749985 154.583328 163.416656 172.249985 
181.083328 189.916656 198.749985 207.583328 216.416656 225.249985 234.083313 242.916656 251.749985 260.583344 
Z_COORDINATES 31 float
-4.416667 4.416667 13.250000 22.083334 30.916666 39.749996 48.583332 57.416664 66.250000 75.083336 83.916664 92.750000 101.583336 110.416664 119.250000 128.083328 136.916656 145.749985 154.583328 163.416656 172.249985 
181.083328 189.916656 198.749985 207.583328 216.416656 225.249985 234.083313 242.916656 251.749985 260.583344 
CELL_DATA 27000
SCALARS FeatureIds int 1
LOOKUP_TABLE default
 126 126 126 126 54 139 139 139 236 236 236 236 236 236 198 198 198 285 285 285
 285 46 46 46 255 255 255 255 255 255 126 126 126 126 191 191 139 139 236 236
 236 236 236 236 198 198 198 198 285 285 285 46 46 46 171 171 255 255 255 98
 126 126 126 191 191 191 191 191 236 236 236 236 236 236 198 198 198 198 285 285
 285 46 46 171 171 171 171 244 244 98 126 126 126 191 191 191 191 191 236 236
 236 236 236 236 198 198 198 198 213 213 213 46 46 171 171 171 171 244 244 244
 229 229 229 191 191 191 191 293 281 281 236 236 236 80 80 80 80 80 213 213
 210 210 210 171 171 171 171 244 244 144 229 229 229 229 229 293 293 293 293 281
 281 236 236 80 80 80 80 80 80 194 210 210 210 194 171 171 171 244 144 144
 229 229 229 229 229 293 293 293 293 293 293 293 42 80 80 80 80 80 80 194
 194 194 194 194 154 154 154 154 229 229 229 229 229 229 229 293 293 293 293 293
 293 123 42 80 80 80 80 80 80 194 194 194 194 194 154 154 154 154 229 229
 229 229 229 229 229 293 293 293 293 293 123 123 123 80 80 80 80 80 80 194
 194 194 194 194 154 154 154 154 229 229 229 229 229 229 229 293 293 293 293 293
 123 123 123 123 61 61 61 61 80 194 194 257 194 194 154 154 17 17 17 229
 229 229 229 35 35 293 293 293 293 293 123 123 123 61 61 61 61 61 61 194
 257 257 340 340 340 17 17 17 17 17 229 354 35 35 35 35 369 293 369 369
 123 123 123 61 61 61 61 61 61 340 340 340 340 340 340 17 17 17 17 17
 354 354 354 332 332 332 369 369 369 369 110 110 110 61 61 61 61 61 61 340
 340 340 340 340 340 17 17 17 17 17 354 354 354 332 332 332 369 369 369 369
 110 110 110 61 61 61 61 61 272 340 340 340 340 340 340 17 17 17 17 354
 354 354 332 332 332 332 369 369 369 369 369 110 110 396 396 396 396 396 272 272
 284 284 340 340 340 227 227 17 227 354 354 354 332 332 332 369 369 369 369 369
 369 110 110 396 396 396 396 396 50 50 284 284 284 7 7 7 357 357 357 357
 114 114 114 332 332 369 369 369 369 369 369 369 396 396 396 396 396 396 50 50
 50 284 7 7 7 7 357 357 357 357 114 114 114 332 332 369 369 369 369 369
 369 369 89 89 396 396 396 50 50 50 50 7 7 7 7 7 357 357 357 357
 114 114 114 114 332 369 369 369 369 369 369 89 89 89 89 89 138 138 50 50
 50 241 7 7 7 134 357 357 357 357 114 114 114 265 265 369 369 181 181 181
 181 89 89 89 89 89 138 138 138 50 241 241 241 241 7 134 357 357 357 357
 292 292 292 265 265 359 359 181 181 181 181 181 89 89 89 89 138 138 138 241
 241 241 241 241 242 242 242 242 266 266 292 292 292 265 265 359 359 181 181 181
 181 181 89 89 89 89 138 138 241 241 241 241 241 241 242 242 242 242 266 266
 266 292 292 265 265 359 359 181 181 181 181 181 389 389 389 389 172 172 172 241
 241 241 241 241 242 242 242 266 266 266 266 292 274 274 274 364 359 181 181 181
 181 389 389 389 389 389 172 172 172 241 241 241 241 241 242 242 242 266 266 266
 266 274 274 274 274 364 139 139 139 139 44 44 389 389 389 389 172 172 172 241
 241 241 241 23 23 23 23 266 266 266 266 274 274 274 274 139 139 139 139 139
 44 44 44 32 32 32 32 344 172 241 241 241 351 23 23 23 23 23 266 266
 266 274 274 274 139 139 139 139 139 139 139 44 44 32 32 32 32 32 32 351
 351 351 351 351 23 23 23 23 255 266 255 274 274 274 139 139 139 139 139 139
 139 44 44 32 32 32 32 32 32 351 351 351 351 351 255 255 255 255 255 255
 255 126 54 139 139 139 139 139 139 139 139 236 236 32 32 32 32 32 32 351
 351 351 351 351 255 255 255 255 255 255 255 126 126 54 139 139 139 139 139 139
 236 236 236 236 32 32 32 32 285 285 285 46 351 255 255 255 255 255 255 255
 126 126 126 54 54 54 139 139 236 236 236 236 236 236 198 198 198 285 285 285
 285 46 46 46 255 255 255 255 258 98 126 126 126 126 54 54 139 139 236 236
 236 236 236 236 198 198 198 285 285 285 285 285 46 46 171 171 171 258 98 98
 126 126 126 126 191 191 191 191 236 236 236 236 236 236 198 198 198 285 285 285
 285 285 46 171 171 171 171 171 258 98 258 126 126 191 191 191 191 293 236 236
 236 236 236 236 80 80 80 285 285 285 285 210 210 171 171 171 171 171 258 258
 144 229 229 229 191 191 293 293 281 281 281 236 236 80 80 80 80 80 80 210
 210 210 210 171 171 171 171 171 397 144 144 229 229 229 229 293 293 293 281 281
 281 281 80 80 80 80 80 80 80 210 210 210 210 210 171 171 171 171 144 144
 229 229 229 229 229 293 293 293 293 281 281 281 80 80 80 80 80 80 80 80
 210 210 210 194 154 154 154 154 144 144 229 229 229 229 293 293 293 293 293 293
 293 123 80 80 80 80 80 80 80 194 194 194 194 194 154 154 154 154 229 229
 229 229 229 229 293 293 293 293 293 293 293 123 123 80 80 80 80 80 80 223
 194 257 194 194 154 154 154 154 229 229 229 229 229 229 293 293 293 293 293 293
 123 123 123 80 80 80 80 80 223 223 257 257 257 194 154 154 17 17 17 229
 229 229 229 229 13 13 13 293 293 293 123 123 123 61 61 61 61 61 223 223
 257 257 257 340 340 17 17 17 17 17 354 354 354 13 13 13 13 13 293 293
 110 123 123 61 61 61 61 61 223 223 340 340 340 340 340 17 17 17 17 17
 354 354 354 332 13 13 13 369 369 110 110 110 110 61 61 61 61 61 61 340
 340 340 340 340 340 17 17 17 17 17 354 354 354 332 332 332 369 369 369 369
 110 110 110 396 396 396 396 396 187 187 340 340 340 340 340 17 227 227 17 354
 354 354 354 332 332 369 369 369 369 369 110 110 110 396 396 396 396 396 187 187
 340 340 340 340 340 227 227 227 227 354 354 354 354 332 332 369 369 369 369 369
 369 110 110 396 396 185 396 396 50 50 50 50 7 7 7 7 227 227 227 227
 114 114 70 70 332 369 369 369 369 369 369 369 396 396 396 396 396 396 50 50
 50 50 7 7 7 7 357 357 357 357 114 114 70 70 70 369 369 369 369 369
 369 369 396 396 396 396 396 50 50 50 50 7 7 7 7 7 357 357 357 357
 114 114 70 70 70 369 369 369 254 254 254 254 89 89 89 89 138 138 50 50
 50 7 7 7 7 7 357 357 357 357 114 114 70 70 70 359 359 359 254 254
 254 89 89 89 89 138 138 138 138 50 241 241 241 241 7 242 357 357 357 85
 292 336 336 265 359 359 359 359 359 181 181 181 89 89 222 222 138 138 138 241
 241 241 241 241 242 242 242 357 266 266 266 336 336 336 265 359 359 359 359 181
 181 181 222 222 222 222 138 138 241 241 241 241 241 241 242 242 242 266 266 266
 266 336 336 336 359 359 359 359 359 181 181 181 222 222 222 222 222 172 241 241
 241 241 241 241 242 242 242 266 266 266 266 336 336 364 364 364 359 359 359 181
 181 24 222 222 222 222 222 172 172 241 241 241 241 241 242 242 242 266 266 266
 266 336 336 364 364 364 364 364 139 24 24 24 24 222 222 222 222 172 172 241
 241 241 241 241 23 23 23 266 266 266 266 336 364 364 364 364 364 139 139 139
 24 24 24 24 222 32 32 344 172 241 241 241 241 241 23 23 23 266 266 266
 266 323 364 364 364 364 139 139 139 139 24 24 24 24 32 32 32 32 127 127
 351 351 351 351 23 23 23 255 266 266 18 54 54 364 364 139 139 139 139 139
 139 24 24 24 32 32 32 32 127 127 351 351 351 351 255 255 255 255 255 18
 18 54 54 54 54 139 139 139 139 139 139 236 236 32 32 32 32 32 127 127
 351 351 351 351 255 255 255 255 255 18 126 126 54 54 54 139 139 139 139 139
 236 236 236 236 32 32 32 285 285 285 285 46 351 351 255 255 255 255 255 255
 258 126 54 54 54 54 54 306 321 321 321 236 390 390 390 390 285 285 285 285
 285 285 1 1 1 255 255 258 258 258 258 126 126 54 54 54 304 306 321 321
 321 321 321 390 390 198 198 285 285 285 285 285 1 1 1 171 171 258 258 258
 258 126 126 54 304 304 304 304 321 321 321 321 321 236 198 198 198 285 285 285
 285 167 1 1 171 171 171 258 258 258 258 258 126 304 304 304 304 304 321 321
 321 321 321 321 80 80 80 80 285 285 167 167 167 171 171 171 171 171 258 258
 397 397 229 229 304 304 304 293 281 281 321 321 321 80 80 80 80 80 80 80
 210 210 210 171 171 171 171 397 397 397 397 229 229 229 293 293 293 293 293 281
 281 321 80 80 80 80 80 80 80 80 210 210 210 210 171 171 171 397 397 397
 229 229 229 229 293 293 293 293 293 293 293 293 80 80 80 80 80 80 80 80
 210 210 210 252 154 154 154 397 397 397 229 229 229 229 293 293 293 293 293 293
 293 293 80 80 80 80 80 80 80 223 194 194 194 252 154 154 154 154 229 229
 229 229 229 229 293 293 293 293 293 293 293 123 80 80 80 80 80 80 223 223
 223 257 194 252 154 154 154 154 229 229 229 229 229 229 13 13 293 293 293 293
 293 123 123 80 80 80 80 80 223 223 223 257 257 252 154 154 17 17 17 229
 229 229 229 13 13 13 13 13 293 293 37 123 31 31 61 61 61 223 223 223
 223 257 340 340 163 17 17 17 17 17 229 354 229 13 13 13 13 13 13 110
 110 31 31 31 145 145 145 61 223 223 223 340 340 340 340 17 17 17 17 17
 354 354 354 13 13 13 13 13 13 110 110 110 31 31 145 145 145 145 223 223
 340 340 340 340 340 17 17 17 17 17 354 354 354 13 13 13 13 369 369 369
 110 110 110 31 145 145 145 145 187 187 340 340 340 340 340 340 227 227 227 354
 354 354 354 332 332 369 369 369 369 369 110 110 110 31 396 396 396 396 187 187
 187 340 340 340 340 227 227 227 227 227 354 354 70 70 70 369 369 369 369 369
 369 208 208 396 396 396 396 396 187 187 187 340 7 109 109 109 227 227 227 227
 70 70 70 70 70 369 369 369 369 369 369 208 208 396 396 396 396 396 50 50
 50 50 7 7 7 7 357 357 357 357 70 70 70 70 70 70 369 369 254 254
 254 254 208 396 396 396 396 50 50 50 50 50 7 7 7 7 357 357 357 357
 85 70 70 70 70 70 254 254 254 254 254 254 254 89 89 396 138 138 50 50
 50 203 7 7 7 203 357 357 357 85 336 336 70 70 70 359 359 359 254 254
 254 254 89 89 222 138 138 138 138 50 241 241 241 203 203 203 203 357 85 85
 336 336 336 336 359 359 359 359 359 254 254 254 222 222 222 222 138 138 138 241
 241 241 241 241 242 242 242 242 85 85 336 336 336 336 359 359 359 359 359 359
 254 254 222 222 222 222 222 138 241 241 241 241 241 241 242 242 242 242 266 266
 336 336 336 336 336 359 359 359 359 359 181 222 222 222 222 222 222 222 241 241
 241 241 241 241 242 242 242 266 266 266 266 336 336 336 364 364 359 359 359 359
 24 24 222 222 222 222 222 190 190 241 241 241 241 241 242 242 242 266 266 266
 266 336 336 364 364 364 364 364 364 24 24 24 24 222 222 222 222 190 190 119
 119 119 119 119 119 23 23 266 266 266 323 336 364 364 364 364 364 364 364 24
 24 24 24 24 222 222 111 190 190 127 119 119 119 119 119 23 392 392 266 266
 323 323 364 364 364 364 364 364 139 24 24 24 24 24 111 111 111 111 127 127
 127 351 351 351 392 392 392 392 392 266 18 54 54 54 364 364 364 139 139 139
 24 24 24 111 111 111 111 127 127 127 127 351 351 351 392 392 392 392 392 18
 18 54 54 54 54 54 139 139 139 139 139 390 390 390 111 111 111 127 127 127
 127 351 351 351 392 392 392 392 18 18 18 54 54 54 54 54 139 139 139 139
 236 390 390 390 390 390 111 285 285 285 285 351 351 351 255 255 255 255 258 18
 258 258 54 54 54 54 306 306 321 321 321 390 390 390 390 390 390 285 285 285
 285 285 1 1 1 1 255 258 258 258 258 258 54 54 54 54 306 306 321 321
 321 321 321 390 390 390 390 285 285 285 285 285 1 1 1 171 171 258 258 258
 258 258 126 304 304 304 304 306 321 321 321 321 321 390 390 390 198 285 285 285
 167 167 167 1 1 171 171 258 258 258 258 258 258 304 304 304 304 304 321 321
 321 321 321 321 80 80 80 80 285 285 167 167 167 171 171 171 171 171 397 258
 397 397 229 304 304 304 304 304 321 321 321 321 321 80 80 80 80 80 80 80
 167 167 167 297 171 171 171 397 397 397 397 397 229 229 304 293 293 293 293 281
 321 321 321 80 80 80 80 80 80 80 210 210 297 297 297 171 171 397 397 397
 397 229 229 229 41 41 293 293 293 293 293 321 80 80 80 80 80 80 80 80
 210 210 252 252 252 154 154 397 397 397 229 229 229 229 41 41 293 293 293 293
 293 65 80 80 80 80 80 80 80 223 223 223 252 252 252 154 154 397 397 397
 229 229 229 229 41 293 293 293 293 37 37 37 80 80 80 80 80 80 223 223
 223 223 252 252 252 154 154 383 229 229 229 229 229 229 13 13 13 293 37 37
 37 37 31 80 80 80 80 223 223 223 223 223 163 163 163 163 17 17 229 229
 229 229 229 13 13 13 13 13 37 37 37 31 31 31 31 80 80 223 223 223
 223 223 163 163 163 163 17 17 17 229 212 212 212 13 13 13 13 13 13 37
 37 31 31 31 31 145 145 223 223 223 223 340 340 340 163 17 17 17 17 17
 212 212 212 13 13 13 13 13 13 37 31 31 31 31 145 145 145 145 150 150
 340 340 340 340 340 17 17 17 17 212 212 212 212 212 13 13 13 13 13 208
 208 31 31 31 145 145 145 145 150 150 150 340 340 340 109 109 227 227 227 212
 212 212 212 212 13 13 303 303 303 208 208 208 31 31 145 145 145 145 187 187
 187 109 109 109 109 109 227 227 227 212 212 212 70 70 70 70 303 303 303 208
 208 208 208 208 396 396 145 187 187 187 187 109 109 109 109 109 227 227 227 22
 212 70 70 70 70 70 303 303 303 208 208 208 208 208 396 396 396 396 187 187
 187 109 109 109 109 109 109 22 22 22 85 70 70 70 70 70 70 254 254 254
 208 208 208 208 396 396 396 50 50 50 50 203 203 203 203 203 203 357 22 85
 85 70 70 70 70 70 70 254 254 254 254 254 208 208 222 233 233 233 233 50
 50 203 203 203 203 203 203 85 85 85 85 85 70 70 70 359 359 359 254 254
 254 254 254 222 222 222 233 233 233 50 203 203 203 203 203 203 203 85 85 85
 336 336 336 336 359 359 359 359 359 254 254 254 222 222 222 222 222 233 233 241
 241 241 203 203 203 203 203 85 85 85 336 336 336 336 359 359 359 359 359 359
 254 254 222 222 222 222 222 222 222 119 241 241 241 203 203 203 203 336 336 336
 336 336 336 336 336 359 359 359 359 359 254 222 222 222 222 222 222 222 119 119
 119 119 119 119 119 242 242 336 336 336 336 336 336 336 364 364 364 359 359 359
 24 24 222 222 222 222 222 190 190 119 119 119 119 119 119 119 242 336 336 336
 336 336 336 364 364 364 364 364 364 24 24 24 24 222 222 222 190 190 190 119
 119 119 119 119 119 119 392 392 336 336 323 323 323 364 364 364 364 364 364 24
 24 24 24 24 222 222 190 190 190 127 119 119 119 119 119 119 392 392 392 323
 323 323 323 364 364 364 364 364 364 24 24 24 24 24 111 111 111 111 127 127
 127 119 119 119 119 392 392 392 392 323 18 323 54 54 364 364 364 364 364 24
 24 24 24 390 111 111 111 111 127 127 127 127 351 351 392 392 392 392 392 18
 18 54 54 54 54 54 364 364 139 139 24 390 390 390 111 111 111 127 127 127
 127 127 351 351 392 392 392 392 18 18 18 54 54 54 54 54 364 139 139 139
 390 390 390 390 390 390 111 127 127 127 127 127 351 351 255 255 255 258 258 18
 258 258 54 54 54 54 306 306 306 321 321 390 390 390 390 390 390 9 9 9
 9 5 1 1 1 125 125 125 258 258 258 258 54 54 54 306 306 306 306 321
 321 321 390 390 390 390 390 9 9 9 9 5 1 1 1 125 125 125 258 258
 258 258 153 153 304 304 306 306 306 321 321 321 321 390 390 390 394 9 9 9
 9 167 167 1 1 125 125 125 258 258 258 258 153 153 304 304 304 306 321 321
 321 321 321 394 394 394 394 394 9 9 167 167 167 297 297 297 125 125 258 258
 397 397 153 153 304 304 304 306 321 321 321 321 321 394 394 394 394 394 132 132
 132 167 297 297 297 297 171 397 397 397 397 397 15 15 15 41 41 41 293 321
 321 321 321 394 394 394 394 80 132 132 132 297 297 297 297 297 383 397 397 397
 397 397 229 41 41 41 41 41 372 372 65 65 65 394 394 394 80 80 132 132
 132 297 297 297 297 297 383 397 397 397 397 229 229 41 41 41 41 41 372 372
 65 65 65 80 80 80 80 80 80 223 223 297 252 252 252 383 383 383 397 397
 229 229 229 41 41 41 41 41 37 37 37 65 65 80 80 80 80 80 223 223
 223 163 163 163 163 163 383 383 383 383 229 229 229 13 13 13 13 37 37 37
 37 37 65 367 367 367 367 223 223 223 223 163 163 163 163 163 383 383 383 229
 212 212 212 13 13 13 13 13 37 37 37 37 31 31 31 367 367 223 223 223
 223 163 163 163 163 163 163 17 17 212 212 212 212 13 13 13 13 13 37 37
 37 31 31 31 31 145 145 223 223 223 223 163 163 163 163 163 17 17 17 212
 212 212 212 212 13 13 13 13 13 37 31 31 31 31 31 145 145 150 150 150
 150 150 109 163 163 109 184 17 212 212 212 212 212 212 13 13 13 303 303 208
 208 31 31 31 31 145 145 150 150 150 150 109 109 109 109 109 109 227 212 212
 212 212 212 212 212 303 303 303 303 208 208 208 208 31 31 145 145 145 150 150
 150 109 109 109 109 109 109 22 22 212 212 212 212 212 70 303 303 303 303 208
 208 208 208 208 31 145 145 145 187 187 187 109 109 109 109 109 109 22 22 22
 22 212 70 70 70 70 303 303 303 208 208 208 208 208 208 396 396 187 187 187
 187 109 109 109 109 109 109 22 22 22 85 70 70 70 70 70 303 303 254 208
 208 208 208 208 208 233 233 233 233 187 203 203 203 203 203 203 203 22 22 22
 85 85 70 70 70 86 86 86 254 254 254 208 208 208 222 233 233 233 233 233
 203 203 203 203 203 203 203 85 85 85 85 85 70 70 86 86 86 359 254 254
 254 254 208 222 222 233 233 233 233 233 203 203 203 203 203 203 203 85 85 85
 85 336 336 336 86 86 359 359 359 254 254 254 222 222 222 222 233 233 233 233
 203 203 203 203 203 203 203 85 85 85 336 336 336 336 86 359 359 359 359 359
 254 254 222 222 222 222 222 233 233 119 119 119 119 203 203 203 203 85 336 336
 336 336 336 336 336 359 359 359 359 359 254 222 222 222 222 222 222 222 119 119
 119 119 119 119 119 203 203 336 336 336 336 336 336 336 364 364 364 359 359 24
 24 24 222 222 222 222 222 190 190 119 119 119 119 119 119 119 119 336 336 336
 323 323 323 364 364 364 364 364 364 24 24 24 24 222 222 222 190 190 190 119
 119 119 119 119 119 119 119 336 336 336 323 323 323 364 364 364 364 364 364 24
 24 24 24 222 222 222 190 190 190 119 119 119 119 119 119 119 392 392 323 323
 323 323 323 364 364 364 364 364 364 24 24 24 24 24 111 111 111 111 127 127
 127 119 119 119 119 392 392 392 392 323 323 323 323 54 364 364 364 364 364 24
 24 24 390 390 111 111 111 111 127 127 127 127 119 119 119 392 392 392 392 18
 18 54 54 54 54 54 364 364 216 24 390 390 390 390 390 111 111 111 127 127
 127 127 351 119 246 246 246 246 246 18 18 54 54 54 54 54 306 306 306 390
 390 390 390 390 390 390 390 111 127 127 127 127 351 183 246 246 246 246 258 258
 258 258 54 54 54 306 306 306 306 306 390 390 390 390 390 390 390 9 9 9
 9 5 5 183 183 125 125 125 125 258 258 258 54 54 54 306 306 306 306 321
 321 321 390 390 390 390 390 9 9 9 9 5 5 183 183 125 125 125 125 258
 258 258 153 153 153 306 306 306 306 321 321 321 321 390 390 390 394 9 9 9
 9 5 5 183 183 125 125 125 125 258 258 322 153 153 153 304 306 306 306 321
 321 321 321 394 394 394 394 394 9 9 167 297 297 297 297 125 125 125 125 258
 397 397 153 153 153 304 304 306 321 321 321 321 321 394 394 394 394 394 132 132
 132 297 297 297 297 297 125 397 397 397 397 397 15 15 15 41 41 41 363 363
 113 113 394 394 394 394 394 394 132 132 132 297 297 297 297 297 383 383 397 397
 397 397 15 15 41 41 41 41 363 372 65 65 65 394 394 394 394 394 132 132
 132 297 297 297 297 383 383 383 383 397 397 229 229 41 41 41 41 41 372 372
 65 65 65 394 394 394 394 394 80 223 223 297 297 297 297 383 383 383 383 383
 229 229 229 41 41 41 41 37 37 37 37 65 65 367 367 367 367 367 223 223
 223 163 163 163 163 383 383 383 383 383 212 212 212 41 41 41 41 37 37 37
 37 37 367 367 367 367 367 367 223 223 223 163 163 163 163 163 383 383 383 383
 212 212 212 13 13 13 13 37 37 37 37 37 31 31 367 367 367 367 223 223
 223 163 163 163 163 163 184 383 383 383 212 212 212 212 13 13 13 13 37 37
 37 31 31 31 31 367 367 367 150 150 150 163 163 163 163 184 184 264 264 212
 212 212 212 212 13 13 13 13 37 208 208 31 31 31 31 31 145 150 150 150
 150 150 109 163 184 184 184 264 264 212 212 212 212 212 212 13 303 303 303 208
 208 208 31 31 31 31 145 150 150 150 150 150 109 109 109 184 184 264 264 212
 212 212 212 212 212 291 303 303 303 208 208 208 208 31 31 31 145 150 150 150
 150 109 109 109 109 109 109 22 22 212 22 212 212 212 291 303 303 303 303 208
 208 208 208 208 208 145 145 150 150 150 150 109 109 109 109 109 109 22 22 22
 22 212 212 70 70 303 303 303 303 208 208 208 208 208 208 208 233 233 187 187
 187 109 109 109 109 109 109 22 22 22 85 85 70 70 70 86 86 303 303 208
 208 208 208 208 208 233 233 233 233 187 203 203 203 203 203 203 203 22 22 22
 85 85 70 70 86 86 86 86 254 254 208 208 208 208 233 233 233 233 233 233
 203 203 203 203 203 203 203 85 85 85 85 85 85 86 86 86 86 359 254 254
 254 254 208 222 222 233 233 233 233 233 203 203 203 203 203 203 203 85 85 85
 85 85 336 86 86 86 86 359 359 254 6 6 222 222 222 222 233 233 233 233
 203 203 203 203 203 203 203 85 85 85 336 336 336 336 86 86 359 359 359 359
 6 6 222 222 222 222 222 233 233 119 119 119 119 203 203 203 203 85 85 336
 336 336 336 336 336 359 359 359 359 359 6 222 222 222 222 222 222 222 119 119
 119 119 119 119 119 203 203 336 336 336 336 336 336 336 364 364 364 359 359 24
 24 24 222 222 222 222 222 190 119 119 119 119 119 119 119 119 119 336 336 336
 323 323 323 323 364 364 364 364 364 24 24 24 222 222 222 222 190 190 190 119
 119 119 119 119 119 119 395 395 336 323 323 323 323 323 364 364 364 364 364 24
 24 24 24 222 222 222 190 190 190 119 119 119 119 119 119 119 395 395 395 323
 323 323 323 323 364 364 364 216 216 24 24 24 24 390 390 111 71 71 71 119
 119 119 119 119 119 246 246 246 246 323 323 323 323 323 364 364 216 216 216 216
 24 390 390 390 390 111 111 71 71 127 127 127 119 119 246 246 246 246 246 323
 323 323 54 54 54 54 216 216 216 216 390 390 390 390 390 390 111 71 71 127
 127 127 119 183 246 246 246 246 246 246 258 54 54 54 54 54 306 306 306 306
 390 390 390 75 390 390 390 71 71 127 127 127 183 183 246 246 246 246 246 258
 258 258 180 180 180 180 306 306 306 306 390 390 390 390 390 390 390 9 9 9
 9 5 183 183 183 125 125 246 246 92 258 258 322 322 322 306 306 306 306 306
 321 390 390 390 390 390 68 9 9 9 9 5 183 183 183 183 125 125 125 258
 258 322 322 322 322 322 306 306 306 321 321 321 390 390 68 68 68 68 9 9
 9 5 183 183 183 183 125 125 125 258 258 322 322 322 322 322 306 306 306 321
 321 113 113 68 68 68 68 68 9 9 9 297 297 297 297 297 125 125 125 258
 397 322 322 322 322 322 322 306 363 321 113 113 113 394 394 394 394 394 132 132
 132 297 297 297 297 297 383 383 383 397 397 322 322 15 322 41 41 363 363 363
 113 113 113 394 394 394 394 394 132 132 132 297 297 297 297 383 383 383 383 383
 383 383 15 15 41 41 41 363 363 363 363 113 113 394 394 394 394 394 132 132
 132 297 297 297 297 383 383 383 383 383 383 383 41 41 41 41 41 363 363 363
 363 65 65 394 394 394 394 367 367 132 132 297 297 297 383 383 383 383 383 383
 383 383 41 41 41 41 41 363 363 363 363 65 65 367 367 367 367 367 367 223
 223 163 163 163 163 383 383 383 383 383 383 212 212 41 41 41 41 37 37 37
 37 37 367 367 367 367 367 367 367 223 223 163 163 163 163 163 383 383 383 383
 212 212 212 212 48 48 48 37 37 37 37 37 367 367 367 367 367 367 367 223
 163 163 163 163 163 184 184 383 383 264 212 212 212 212 48 48 48 37 37 37
 37 31 31 31 367 367 367 367 150 150 150 163 163 163 184 184 184 264 264 264
 264 212 212 212 48 48 48 48 37 208 208 31 31 31 31 367 367 150 150 150
 150 150 163 163 184 184 184 264 264 264 264 212 212 212 296 296 296 303 303 208
 208 208 31 31 31 31 145 150 150 150 150 109 109 109 109 184 184 264 264 264
 212 212 212 212 291 291 303 303 303 208 208 208 208 208 31 31 145 150 150 150
 150 109 109 109 109 109 109 264 264 264 22 212 212 212 291 291 303 303 303 208
 208 208 208 208 208 208 145 150 150 150 109 109 109 109 109 109 109 22 22 22
 22 212 212 212 291 291 303 303 303 208 208 208 208 208 208 208 233 233 233 187
 109 109 109 109 109 109 109 22 22 22 22 212 212 70 86 86 86 303 303 208
 208 208 208 208 208 233 233 233 233 233 203 203 203 203 203 203 203 22 22 22
 85 85 85 86 86 86 86 86 254 254 208 208 208 335 335 233 233 233 233 233
 203 203 203 203 203 203 203 85 85 85 85 85 85 86 86 86 86 359 254 6
 6 6 6 335 335 233 233 233 233 233 203 203 203 203 203 203 203 85 85 85
 85 85 336 86 86 86 359 359 359 6 6 6 6 335 222 233 233 233 233 119
 203 203 203 203 203 203 203 85 85 85 336 336 336 336 86 86 359 359 359 6
 6 6 6 222 222 222 222 233 119 119 119 119 203 203 203 203 203 85 85 85
 336 336 336 336 336 359 359 359 359 6 6 6 222 222 222 222 222 222 119 119
 119 119 119 119 119 203 203 395 336 336 336 336 323 336 364 364 57 359 359 6
 24 6 222 222 222 222 222 190 119 119 119 119 119 119 119 119 395 395 336 336
 323 323 323 323 364 364 57 57 216 24 24 24 222 222 222 222 222 190 119 119
 119 119 119 119 119 119 395 395 395 323 323 323 323 323 364 364 364 216 216 216
 24 24 24 222 222 222 71 71 71 119 119 119 119 119 119 119 395 395 395 323
 323 323 323 323 364 364 216 216 216 216 24 390 390 390 390 71 71 71 71 71
 119 119 119 119 119 395 395 395 395 323 323 323 323 323 180 216 216 216 216 216
 216 390 390 390 390 71 71 71 71 71 127 119 119 119 246 246 246 246 246 323
 92 323 180 180 180 180 216 216 216 216 216 390 390 390 390 390 71 71 71 71
 71 119 183 183 246 246 246 246 246 92 92 92 180 180 180 180 216 216 216 216
 390 390 390 390 390 390 71 71 71 71 71 183 183 183 183 246 246 246 246 92
 92 92 180 180 180 180 306 306 306 306 390 390 390 390 390 390 390 9 9 377
 9 183 183 183 183 183 125 246 92 92 258 322 322 322 322 322 306 306 306 306
 390 390 390 390 390 68 68 68 377 377 377 183 183 183 183 183 125 125 125 258
 258 322 322 322 322 322 306 306 306 321 321 321 390 68 68 68 68 68 9 377
 9 183 183 183 183 183 125 125 125 258 322 322 322 322 322 322 322 306 10 113
 113 113 113 68 68 68 68 68 68 377 9 183 183 183 183 183 383 383 125 258
 322 322 322 322 322 322 322 363 113 113 113 113 113 68 68 68 68 68 132 132
 132 297 297 297 297 297 383 383 383 383 383 322 322 322 322 322 41 363 363 363
 113 113 113 113 394 394 394 394 132 132 132 297 297 297 297 383 383 383 383 383
 383 20 20 20 20 41 41 363 363 363 363 113 113 394 394 394 394 394 132 132
 132 297 297 297 383 383 383 383 383 383 383 20 20 20 41 41 41 363 363 363
 363 363 113 367 367 367 367 367 367 132 132 297 297 297 383 383 383 383 383 383
 383 383 20 20 41 41 41 363 363 363 363 363 367 367 367 367 367 367 367 367
 286 163 163 163 163 383 383 383 383 383 383 58 58 58 58 41 41 363 363 363
 363 363 367 367 367 367 367 367 367 367 286 286 163 163 163 383 383 383 383 383
 264 58 58 58 48 48 48 37 37 37 37 37 367 367 367 367 367 367 367 367
 163 163 163 163 163 184 383 383 383 264 264 212 58 58 48 48 48 48 37 37
 37 31 367 367 367 367 367 367 367 150 150 163 163 163 184 184 184 264 264 264
 264 212 212 58 48 48 48 48 290 208 208 208 31 31 367 367 367 367 150 150
 150 204 204 204 184 184 184 264 264 264 264 264 212 212 296 253 296 303 208 208
 208 208 208 31 31 31 367 150 150 150 150 109 109 204 204 184 184 264 264 264
 264 212 212 291 291 291 291 303 303 208 208 208 208 208 31 31 225 225 150 150
 150 109 109 109 109 109 184 264 264 264 264 212 212 291 291 291 291 291 303 208
 208 208 208 208 208 208 225 225 225 150 109 109 109 109 109 109 109 264 264 264
 22 212 212 291 291 291 291 291 303 208 208 208 208 208 208 263 263 263 120 120
 120 109 109 109 109 59 59 22 22 22 22 212 212 291 291 291 291 291 303 208
 208 208 208 208 335 263 263 263 120 120 120 203 203 203 203 59 59 22 22 22
 85 85 85 86 86 86 86 86 6 6 6 6 335 335 335 263 263 263 120 120
 120 203 203 203 203 203 59 85 85 85 85 85 85 142 86 86 86 359 6 6
 6 6 335 335 335 263 263 263 120 120 120 203 203 203 203 203 203 85 85 85
 85 85 142 142 142 142 359 359 6 6 6 228 228 335 335 335 263 319 319 120
 120 203 203 203 203 203 203 85 85 85 391 336 142 142 142 142 359 359 6 6
 6 6 6 335 335 335 319 319 319 119 119 119 203 203 203 203 203 391 391 391
 336 336 142 142 142 142 57 177 177 6 6 6 6 222 222 222 319 319 319 119
 119 119 119 119 203 280 280 395 391 391 67 323 323 323 57 57 57 57 177 177
 177 6 6 175 222 64 64 64 64 119 119 119 119 119 119 280 280 395 67 67
 323 323 323 323 57 57 57 57 177 177 177 177 175 175 222 64 64 64 64 119
 119 119 119 119 119 280 395 395 395 67 323 323 323 323 57 57 57 216 216 216
 177 177 24 222 222 64 64 64 64 64 119 119 119 119 119 215 395 395 395 67
 323 323 323 323 323 216 216 216 216 216 216 390 390 390 390 71 71 71 71 71
 119 119 119 119 215 215 395 395 395 67 323 323 323 180 180 216 216 216 216 216
 216 390 390 390 390 71 71 71 71 71 119 119 119 215 215 215 246 246 246 323
 92 323 180 180 180 180 216 216 216 216 216 390 390 390 390 71 71 71 71 71
 71 385 183 183 215 215 246 246 246 92 92 92 180 180 180 180 216 216 216 216
 390 390 390 390 390 390 71 71 71 71 71 183 183 183 183 246 246 246 92 92
 92 180 180 180 180 180 180 10 10 10 390 390 390 390 390 390 68 377 377 377
 377 183 183 183 183 183 161 246 92 92 322 322 322 322 322 322 10 10 10 10
 343 343 390 390 68 68 68 68 377 377 377 183 183 183 183 183 161 161 92 92
 322 322 322 322 322 322 10 10 10 10 343 343 343 68 68 68 68 68 377 377
 377 183 183 183 183 183 161 161 125 258 322 322 322 322 322 322 10 10 10 10
 343 343 343 68 68 68 68 68 377 377 377 288 183 183 183 183 383 383 279 279
 279 322 322 322 322 322 10 10 10 10 113 113 113 68 68 68 68 68 68 288
 288 288 288 297 297 383 383 383 279 279 279 20 20 20 322 322 10 10 363 363
 113 113 113 113 68 68 68 68 68 288 288 288 288 288 383 383 383 383 279 279
 279 20 20 20 20 20 41 363 363 363 363 113 113 113 394 218 367 367 11 288
 288 288 288 297 383 383 383 383 383 383 383 20 20 20 20 20 41 363 363 363
 363 363 113 367 218 218 367 367 367 288 288 286 288 383 383 383 383 383 383 383
 383 20 20 20 20 20 41 363 363 363 363 363 367 367 367 367 367 367 367 367
 286 286 286 163 383 383 383 383 383 383 383 58 58 58 58 58 58 363 363 363
 363 363 367 367 367 367 367 367 367 286 286 286 286 163 163 383 383 383 383 383
 264 58 58 58 58 48 48 48 290 290 290 290 367 367 367 367 367 367 367 367
 286 286 286 163 163 383 383 383 383 264 264 58 58 58 58 48 48 48 290 290
 290 290 367 367 367 367 367 367 367 367 286 286 204 204 204 184 184 264 264 264
 264 58 58 58 58 48 48 48 290 290 290 208 31 367 367 367 367 367 367 150