# vtk DataFile Version 2.0
Data set from IO Version 6.4.197.9a0dee2
ASCII

DATASET RECTILINEAR_GRID
DIMENSIONS 31 31 31
X_COORDINATES 31 float
-4.416667 4.416667 13.250000 22.083334 30.916666 39.749996 48.583332 57.416664 66.250000 75.083336 83.916664 92.750000 101.583336 110.416664 119.250000 128.083328 136.916656 145.749985 154.583328 163.416656 172.249985 
181.083328 189.916656 198.749985 207.583328 216.416656 225.249985 234.083313 242.916656 251.749985 260.583344 
Y_COORDINATES 31 float
-4.416667 4.416667 13.250000 22.083334 30.916666 39.749996 48.583332 57.416664 66.250000 75.083336 83.916664 92.750000 101.583336 110.416664 119.250000 128.083328 136.916656 145.749985 154.583328 163.416656 172.249985 
181.083328 189.916656 198.749985 207.583328 216.416656 225.249985 234.083313 242.916656 251.749985 260.583344 
Z_COORDINATES 31 float
-4.416667 4.416667 13.250000 22.083334 30.916666 39.749996 48.583332 57.416664 66.250000 75.083336 83.916664 92.750000 101.583336 110.416664 119.250000 128.083328 136.916656 145.749985 154.583328 163.416656 172.249985 
181.083328 189.916656 198.749985 207.583328 216.416656 225.249985 234.083313 242.916656 251.749985 260.583344 
CELL_DATA 27000
SCALARS FeatureIds int 1
LOOKUP_TABLE default
 149 149 149 149 202 202 385 385 385 304 304 304 373 373 33 33 33 33 33 276
 276 276 276 276 123 193 193 193 193 149 149 149 149 149 202 385 385 385 385 385
 304 373 373 373 373 172 172 172 172 346 346 276 276 276 193 193 193 193 193 149
 149 149 149 149 221 221 385 385 385 385 306 306 373 373 172 172 172 172 172 346
 346 346 346 346 193 193 193 193 149 149 149 149 17 17 221 221 221 385 306 306
 306 306 306 172 172 172 172 172 229 229 346 346 346 346 193 193 193 193 149 149
 17 17 17 17 221 221 221 306 306 306 306 306 306 172 172 172 172 229 229 229
 229 346 346 83 40 40 40 40 17 17 17 17 17 17 221 221 306 306 306 306
 306 306 306 298 298 298 172 229 229 229 229 229 83 83 40 40 40 40 17 17
 17 17 17 17 17 306 306 306 306 306 306 306 298 298 298 298 236 229 229 229
 229 229 83 83 40 139 139 139 139 17 17 17 17 17 161 306 306 306 306 306
 306 298 298 298 298 298 236 236 236 229 229 229 248 248 248 139 139 139 57 57
 57 161 161 161 161 161 306 306 306 306 306 298 298 298 298 236 236 236 236 236
 236 248 248 248 248 139 139 139 57 57 57 161 161 161 161 161 336 336 336 336
 402 402 402 298 298 236 236 236 236 236 236 248 248 248 248 248 57 57 57 57
 57 161 161 161 161 336 336 336 336 336 402 402 402 402 236 236 236 236 236 236
 212 248 248 248 248 248 200 200 57 57 358 161 161 161 161 336 336 336 336 402
 402 402 402 402 236 236 236 236 236 236 212 212 248 248 248 200 200 200 200 200
 358 358 358 161 31 336 336 336 336 402 402 402 402 402 402 236 236 307 307 307
 212 212 248 119 224 224 200 200 200 358 358 358 358 358 31 336 336 336 53 53
 402 402 226 226 226 226 222 222 307 307 212 119 119 119 119 224 224 200 200 358
 358 358 358 358 31 31 336 53 53 53 53 53 226 226 226 226 222 222 307 245
 119 119 119 119 119 119 19 19 200 358 358 358 358 358 31 86 53 53 53 53
 53 53 226 226 226 118 222 222 272 272 119 119 119 119 119 119 19 19 358 358
 353 353 353 353 86 86 48 53 53 53 53 53 53 226 118 118 118 118 272 272
 272 119 119 119 119 119 12 12 12 358 353 353 353 353 86 86 48 48 263 263
 263 263 384 384 118 118 118 118 272 272 272 119 119 119 119 93 12 12 12 353
 353 353 353 353 86 48 48 48 263 263 263 263 384 384 384 118 118 118 272 272
 272 119 119 93 93 93 93 12 12 353 353 353 353 353 86 48 48 48 263 263
 263 263 384 384 384 384 118 118 272 272 272 211 211 93 93 93 93 93 12 353
 317 317 317 317 317 48 48 263 263 263 263 263 384 384 384 196 196 196 42 211
 211 211 211 93 93 93 93 93 93 93 317 317 317 317 317 299 299 263 263 263
 263 263 384 384 196 196 196 196 158 211 211 211 211 93 93 93 93 93 93 317
 317 317 317 317 299 299 299 299 263 263 263 285 384 384 196 196 196 158 158 158
 158 211 211 211 93 93 93 93 317 317 317 317 317 317 299 299 299 299 299 263
 263 215 215 110 110 110 110 158 158 158 158 158 158 158 93 93 93 317 317 317
 21 21 21 21 299 299 299 299 299 299 270 215 215 215 215 110 158 158 158 158
 158 158 158 158 158 123 21 21 21 21 21 21 21 21 299 299 299 299 299 270
 270 215 215 215 215 215 228 228 158 158 158 158 158 158 123 123 123 198 198 21
 21 21 21 21 299 299 299 299 299 270 270 215 215 215 215 215 158 158 158 158
 158 158 158 158 123 123 123 198 198 198 198 21 21 21 299 299 299 299 299 304
 270 270 215 215 215 33 158 158 158 158 158 158 276 276 123 123 123 123 198 198
 198 198 21 202 202 202 202 202 304 304 304 304 215 33 33 33 33 158 158 158
 158 276 276 276 123 123 123 123 198 198 198 149 149 202 202 202 202 202 304 304
 304 304 304 33 33 33 33 33 158 158 276 276 276 276 123 123 123 123 123 198
 149 149 149 202 202 202 202 385 385 304 304 373 373 373 373 373 33 33 33 276
 276 276 276 276 123 193 193 193 193 149 149 149 149 149 202 202 385 385 385 385
 373 373 373 373 373 373 172 172 78 346 346 276 276 276 193 193 193 193 193 149
 149 149 149 149 221 221 221 385 385 306 306 373 373 373 373 172 172 78 78 346
 346 346 346 346 346 193 193 193 193 149 17 17 17 221 221 221 221 306 306 306
 306 306 373 373 172 172 172 78 78 346 346 346 346 346 346 40 40 40 17 17
 17 17 17 17 221 221 221 306 306 306 306 306 306 172 172 172 172 78 229 229
 346 346 346 346 40 40 40 40 17 17 17 17 17 17 221 221 306 306 306 306
 306 306 306 298 298 298 236 229 229 229 229 229 83 83 40 40 40 40 17 17
 17 17 17 17 17 306 306 306 306 306 306 306 298 298 298 298 236 236 229 229
 229 229 248 83 40 40 139 139 57 17 17 17 17 17 17 306 306 306 306 306
 306 306 298 298 298 236 236 236 236 236 236 248 248 248 248 248 139 57 57 57
 57 57 161 161 161 341 341 306 306 306 306 306 298 298 298 236 236 236 236 236
 236 248 248 248 248 248 57 57 57 57 57 57 161 161 161 341 341 341 336 402
 402 402 402 402 236 236 236 236 236 236 236 248 248 248 248 248 57 57 57 57
 57 57 161 161 161 341 341 341 336 402 402 402 402 402 236 236 236 236 236 236
 236 248 248 248 248 248 57 57 57 57 358 358 358 161 161 341 341 336 336 402
 402 402 402 402 402 236 236 236 307 236 236 248 248 248 248 248 57 57 57 57
 358 358 358 358 31 336 336 336 336 402 402 402 402 402 160 160 236 307 307 307
 212 212 119 119 224 224 224 200 57 358 358 358 358 358 31 336 336 336 342 342
 402 402 402 402 160 160 160 307 307 307 245 119 119 119 224 224 224 19 200 358
 358 358 358 358 31 340 340 53 53 53 53 53 226 160 160 160 160 245 245 245
 245 119 119 119 119 19 19 19 19 358 358 358 358 358 31 340 340 53 53 53
 53 53 226 226 160 160 160 245 245 245 245 119 119 119 119 19 19 19 19 358
 353 353 353 353 86 296 48 11 11 11 11 11 11 384 118 118 118 245 245 245
 245 119 119 119 119 119 12 12 12 358 353 353 353 353 296 296 48 11 11 11
 11 11 384 384 384 384 118 118 272 272 272 119 119 119 119 93 12 12 12 353
 353 353 353 353 86 48 48 48 11 11 11 384 384 384 384 384 118 118 272 272
 211 211 119 119 106 106 12 12 12 353 353 353 353 353 86 48 48 48 263 263
 263 384 384 384 384 384 384 42 42 211 211 211 211 211 106 106 106 12 12 353
 85 85 85 85 85 48 48 263 263 263 263 384 384 384 384 384 42 42 42 211
 211 211 211 211 106 106 106 93 93 85 85 85 317 317 317 299 299 263 263 263
 285 285 384 384 384 196 196 42 42 211 211 211 211 211 220 220 220 220 85 85
 317 317 317 317 299 299 299 299 263 285 285 285 89 89 196 196 196 158 158 158
 211 211 211 211 220 220 220 220 317 317 21 21 21 21 299 299 299 299 299 285
 285 285 89 89 89 110 110 158 158 158 158 158 211 211 220 220 220 220 21 21
 21 21 21 21 299 299 299 299 299 270 270 270 215 215 215 215 228 228 158 158
 158 158 158 158 354 354 354 21 21 21 21 21 21 21 299 299 299 299 299 270
 270 270 215 215 215 215 228 228 158 158 158 158 158 158 354 354 354 198 198 21
 21 21 21 21 299 299 299 299 299 270 270 270 215 215 215 215 228 228 158 158
 158 158 158 158 123 123 123 198 198 198 198 21 21 21 299 299 299 299 299 270
 270 270 270 215 215 215 228 158 158 158 158 158 158 123 123 123 123 198 198 198
 198 198 21 202 202 202 202 202 202 143 270 270 270 215 33 33 33 158 158 158
 158 276 276 276 123 123 123 123 198 198 198 198 149 202 202 202 202 202 143 143
 143 143 373 373 33 33 33 33 158 158 276 276 276 276 123 123 123 123 198 198
 149 149 149 202 202 202 202 202 143 143 143 143 373 373 373 373 33 78 78 247
 247 247 247 276 355 355 193 193 268 268 149 149 149 202 202 202 202 202 385 143
 143 373 373 373 373 373 78 78 78 247 247 247 247 247 355 355 355 193 193 149
 149 149 149 221 221 221 221 306 306 306 306 306 373 373 373 172 78 78 78 78
 346 346 346 346 355 355 355 355 355 149 17 17 17 221 221 221 221 306 306 306
 306 306 306 373 172 172 78 78 78 78 346 346 346 346 355 355 355 355 7 17
 17 17 17 17 221 221 221 306 306 306 306 306 306 306 172 78 78 78 78 78
 346 346 346 346 355 40 40 40 7 17 17 17 17 17 221 221 306 306 306 306
 306 306 306 306 298 78 78 78 78 78 229 346 346 128 40 40 40 7 7 17
 17 17 17 17 17 306 306 306 306 306 306 306 306 298 298 236 236 236 236 236
 229 128 128 128 128 40 40 57 57 17 57 17 17 17 17 306 306 306 306 306
 306 306 306 298 236 236 236 236 236 236 236 128 128 128 128 128 57 57 57 57
 57 57 57 161 161 341 341 306 306 306 306 306 298 298 236 236 236 236 236 236
 236 248 248 248 248 248 57 57 57 57 57 57 57 161 161 341 341 341 341 402
 402 402 402 402 236 236 236 236 236 236 236 248 248 248 248 248 57 57 57 57
 57 57 57 161 161 341 341 341 341 402 402 402 402 402 236 236 236 236 236 236
 236 248 248 248 248 248 57 57 57 57 57 358 358 358 161 341 341 341 341 402
 402 402 402 402 160 236 236 236 236 236 236 248 248 248 248 248 57 57 57 57
 358 358 358 358 358 341 341 341 342 342 402 402 402 402 160 160 160 307 307 307
 177 177 248 119 224 224 224 57 57 358 358 358 358 358 358 341 340 342 342 342
 342 402 402 160 160 160 160 160 307 245 245 119 119 119 119 224 19 19 19 358
 358 358 358 358 358 340 340 340 342 342 342 402 402 160 160 160 160 245 245 245
 245 119 119 119 119 19 19 19 19 358 358 358 358 358 340 340 340 340 11 11
 11 11 11 160 160 160 160 245 245 245 245 119 119 119 119 19 19 19 19 358
 353 353 353 353 296 296 340 340 11 11 11 11 11 384 160 160 160 245 245 245
 245 119 119 119 119 19 19 12 12 12 353 353 353 353 296 296 296 11 11 11
 11 11 384 384 384 384 337 245 245 245 245 119 119 119 119 93 12 12 12 353
 353 353 353 353 296 296 296 11 11 11 11 11 384 384 384 384 384 42 245 211
 211 211 211 119 106 106 12 12 12 353 85 85 85 85 296 296 48 11 11 11
 11 384 384 384 384 384 42 42 42 211 211 211 211 211 106 106 106 12 12 85
 85 85 85 85 85 296 48 263 263 285 285 285 384 384 384 384 42 42 42 211
 211 211 211 211 220 220 220 220 220 85 85 85 85 85 85 299 383 383 285 285
 285 285 285 384 384 42 42 42 42 211 211 211 211 211 220 220 220 220 220 85
 85 85 85 85 299 299 299 383 383 285 285 285 89 89 89 42 42 42 42 211
 211 211 211 211 220 220 220 220 220 85 21 21 21 21 299 299 299 299 299 285
 285 285 89 89 89 89 158 158 158 158 211 211 211 211 220 220 220 220 21 21
 21 21 21 21 299 299 299 299 299 270 270 270 215 89 89 89 158 158 158 158
 158 158 158 211 354 354 354 354 21 21 21 21 21 21 299 299 299 299 299 270
 270 270 215 215 215 215 228 228 158 158 158 158 158 350 354 354 354 198 198 21
 21 21 21 21 299 299 299 299 299 270 270 270 270 215 215 215 158 158 158 158
 158 158 158 350 354 354 354 198 198 198 198 21 21 21 299 299 299 299 299 270
 270 270 270 215 215 215 158 158 158 158 158 158 350 350 350 123 123 198 198 198
 198 198 21 202 202 202 202 202 143 143 270 270 270 270 348 33 158 158 158 158
 158 158 350 350 350 123 123 198 198 198 198 198 21 202 202 202 202 202 143 143
 143 143 270 373 348 348 33 158 158 158 158 276 350 350 350 123 123 123 198 198
 149 149 149 202 202 202 331 331 143 143 143 143 348 348 348 348 78 78 78 247
 247 247 247 355 355 355 268 268 268 268 149 149 149 202 202 202 202 331 143 143
 143 203 373 373 373 373 78 78 78 78 247 247 247 355 355 355 355 355 268 268
 7 149 149 129 129 129 129 306 306 306 203 203 203 373 373 78 78 78 78 78
 247 247 247 355 355 355 355 355 355 7 7 17 17 129 129 129 129 306 306 306
 203 203 203 203 203 78 78 78 78 78 78 346 355 355 355 355 355 355 7 7
 7 17 17 17 129 129 129 306 306 306 306 203 203 203 203 78 78 78 78 78
 78 346 355 355 355 355 355 355 7 7 7 17 17 17 129 129 306 306 306 306
 306 306 306 306 203 78 78 78 78 78 78 346 128 128 355 355 355 7 7 7
 7 17 17 17 17 306 306 306 306 306 306 306 306 298 333 333 333 333 333 78
 75 128 128 128 128 128 57 57 7 7 57 57 57 57 60 60 84 84 306 306
 306 306 306 298 333 333 333 333 333 236 75 128 128 128 128 128 57 57 57 57
 57 57 57 57 60 60 341 84 306 306 306 306 306 298 236 236 333 333 333 236
 75 75 128 128 128 128 57 57 57 57 57 57 57 57 60 341 341 341 138 138
 402 402 402 402 236 236 236 236 236 236 236 248 248 248 248 248 57 57 57 57
 57 57 57 57 341 341 341 341 138 138 402 402 402 402 236 236 236 236 236 236
 236 248 248 248 248 248 57 57 57 57 57 57 57 358 341 341 341 341 138 138
 402 402 402 402 160 160 160 236 236 177 177 177 248 248 248 57 57 57 57 57
 358 358 358 358 358 341 341 341 342 342 342 402 402 160 160 160 160 160 177 177
 177 177 177 119 119 224 101 101 57 57 358 358 358 358 358 340 340 342 342 342
 342 342 402 160 160 160 160 160 177 177 177 177 119 119 119 19 19 101 101 358
 358 358 358 358 340 340 340 340 342 342 342 342 160 160 160 160 160 245 245 245
 245 245 119 119 119 19 19 19 19 358 68 68 68 68 340 340 340 340 11 11
 11 11 115 160 160 160 160 245 245 245 245 245 119 119 119 19 19 19 19 19
 68 68 68 296 296 296 340 340 11 11 11 11 115 115 115 337 337 245 245 245
 245 245 119 119 119 19 19 19 19 68 353 353 353 296 296 296 296 11 11 11
 11 11 115 115 115 337 337 337 245 245 245 245 119 119 119 19 12 12 12 353
 353 353 353 296 296 296 296 11 11 11 11 11 115 115 115 337 337 337 245 211
 211 211 211 211 220 106 12 12 12 353 85 85 85 85 296 296 296 11 11 11
 11 11 384 384 384 384 42 42 42 211 211 211 211 211 220 220 220 220 12 85
 85 85 85 85 85 296 383 11 11 285 285 285 285 384 384 42 42 42 42 211
 211 211 211 211 220 220 220 220 220 85 85 85 85 85 85 383 383 383 383 285
 285 285 285 89 89 42 42 42 42 211 211 211 211 211 220 220 220 220 220 85
 85 85 85 85 85 299 383 383 383 285 285 285 89 89 89 42 42 42 42 211
 211 211 211 211 220 220 220 220 220 85 85 85 85 85 299 299 383 383 383 285
 285 285 89 89 89 89 42 42 158 158 211 211 211 211 220 220 220 220 21 21
 21 21 21 299 299 299 299 299 291 291 270 270 89 89 89 6 6 6 158 158
 158 211 211 211 354 354 354 354 21 21 21 21 21 299 299 299 299 299 291 291
 270 270 270 215 215 6 6 6 158 158 158 158 350 350 354 354 354 354 198 21
 21 21 21 145 299 299 299 299 291 270 270 270 270 270 215 6 6 6 158 158
 158 158 350 350 354 354 354 354 198 198 198 21 145 145 299 299 299 299 291 270
 270 284 270 270 270 6 6 6 158 158 158 350 350 350 350 350 350 198 198 198
 198 198 145 145 202 202 331 331 143 143 143 270 270 348 348 348 6 6 158 158
 158 350 350 350 350 350 268 198 198 198 198 198 145 202 202 202 331 331 143 143
 143 143 348 348 348 348 34 32 32 32 32 350 350 350 350 350 268 268 268 198
 45 45 61 61 61 61 331 331 331 143 143 348 348 348 348 348 34 32 32 32
 32 247 63 355 355 355 268 268 268 268 7 45 129 129 129 129 129 331 331 143
 203 203 203 348 348 348 78 78 78 78 247 247 247 355 355 355 355 268 268 268
 7 7 129 129 129 129 129 331 203 203 203 203 203 203 203 78 78 78 78 78
 247 247 355 355 355 355 355 355 355 355 7 7 129 129 129 129 129 129 306 203
 203 203 203 203 203 78 78 78 78 78 78 247 355 355 355 355 355 355 7 7
 7 7 262 129 129 129 129 306 306 306 203 203 203 203 203 78 78 78 78 78
 78 78 355 355 355 355 355 355 7 7 7 7 262 262 129 129 129 306 306 306
 306 203 203 203 203 78 78 78 78 78 78 75 355 355 355 355 355 7 7 7
 7 7 262 262 60 60 84 84 84 306 306 306 203 203 333 333 333 333 333 75
 75 75 128 128 128 355 355 7 7 7 57 57 57 60 60 60 84 84 84 306
 306 306 306 333 333 333 333 333 333 75 75 75 128 128 128 128 57 57 57 57
 57 57 57 60 60 60 84 84 84 306 138 138 306 333 333 333 333 333 333 75
 75 75 75 128 128 128 57 57 57 57 57 57 57 60 60 60 60 138 138 138
 138 138 402 333 333 333 333 333 333 333 75 75 75 248 248 248 57 57 57 57
 57 57 57 57 71 71 71 138 138 138 138 138 402 402 160 333 333 333 333 333
 75 75 248 248 248 57 57 57 57 57 57 57 57 167 71 71 71 138 138 138
 138 138 402 160 160 160 160 177 177 177 177 177 177 248 248 1 57 57 57 57
 57 57 167 167 71 71 71 138 138 138 138 138 402 160 160 160 160 177 177 177
 177 177 177 177 119 101 101 101 101 57 68 68 68 167 167 340 340 342 342 342
 342 342 160 160 160 160 160 177 177 177 177 177 177 119 119 101 101 101 101 101
 68 68 68 68 167 340 340 340 342 342 342 342 160 160 160 160 160 177 177 177
 177 177 195 195 195 19 101 101 101 68 68 68 68 68 340 340 340 340 11 11
 11 11 115 115 115 160 160 245 245 245 245 245 195 195 195 19 19 19 19 68
 68 68 68 68 296 296 340 340 11 11 11 11 115 115 115 337 337 337 245 245
 245 245 195 195 195 19 19 19 68 68 68 68 68 296 296 296 296 11 11 11
 11 11 115 115 115 337 337 337 245 245 245 245 119 119 195 58 19 19 403 68
 68 353 176 296 296 296 296 11 11 11 11 11 115 115 115 337 337 337 245 211
 211 211 211 211 220 220 220 220 403 403 85 176 176 176 296 296 296 11 11 11
 11 11 115 115 115 337 337 42 42 211 211 211 211 211 220 220 220 220 220 85
 85 85 176 85 85 296 383 11 11 285 285 285 285 384 115 42 42 42 42 211
 211 211 211 211 220 220 220 220 220 85 85 85 85 85 85 383 383 383 383 285
 285 285 285 89 42 42 42 42 42 211 211 211 211 211 220 220 220 220 220 85
 85 85 85 85 85 383 383 383 383 285 285 285 89 89 89 42 42 42 42 211
 211 211 211 211 220 220 220 220 220 85 85 85 85 85 299 383 383 383 383 291
 285 285 89 89 89 89 6 6 6 211 211 211 211 211 220 220 220 220 220 85
 21 21 120 120 299 299 299 291 291 291 291 270 89 89 89 6 6 6 6 6
 211 211 211 211 354 354 354 354 21 21 21 21 120 120 120 299 299 291 291 291
 291 270 270 215 89 6 6 6 6 6 158 350 350 350 354 354 354 354 124 124
 124 145 145 145 145 299 299 291 291 291 270 270 270 270 6 6 6 6 6 6
 158 350 350 350 350 354 354 354 124 124 124 145 145 145 145 145 331 331 331 270
 270 270 270 348 348 6 6 6 6 6 158 350 350 350 350 350 350 268 124 124
 124 145 145 145 145 145 331 331 331 143 270 270 348 348 348 348 34 32 32 32
 32 350 350 350 350 350 268 268 268 124 124 145 145 145 202 331 331 331 331 143
 143 348 348 348 348 348 34 32 32 32 32 63 350 350 350 268 268 268 268 268
 45 45 61 61 61 61 331 331 331 143 143 348 348 348 348 34 34 34 32 32
 32 63 63 63 355 355 268 268 268 268 45 45 61 61 61 61 61 331 331 203
 203 203 203 348 348 34 34 34 78 32 247 247 355 355 355 355 355 355 268 268
 7 262 61 61 129 129 129 61 331 203 203 203 203 203 203 36 78 78 78 78
 247 247 355 355 355 355 355 355 355 355 7 262 262 129 129 129 129 129 129 203
 203 203 203 203 36 36 78 78 78 78 78 355 355 355 355 355 355 355 7 7
 7 262 262 262 129 129 129 129 306 203 203 203 203 203 203 36 78 78 78 78
 78 355 355 355 355 355 355 355 7 7 7 262 262 262 129 129 129 84 84 203
 203 203 203 203 203 333 333 78 78 78 75 75 355 355 355 355 355 7 7 7
 7 262 262 262 60 60 84 84 84 306 306 203 203 203 333 333 333 333 333 75
 75 75 75 128 355 355 355 7 7 7 57 262 262 60 60 60 84 84 84 306
 306 306 203 333 333 333 333 333 333 75 75 75 75 128 128 128 57 57 57 7
 57 57 57 60 60 60 60 84 84 84 138 138 138 333 333 333 333 333 333 75
 75 75 75 235 128 57 57 57 57 57 57 57 57 60 60 60 60 84 138 138
 138 138 138 301 301 333 333 333 333 75 75 75 75 235 235 57 57 57 57 57
 57 57 57 167 71 71 71 138 138 138 138 138 138 301 301 301 333 333 333 75
 75 75 75 248 1 1 1 1 57 57 57 57 167 167 71 71 71 138 138 138
 138 138 138 301 301 301 301 177 177 177 177 177 177 177 1 1 1 1 1 57
 57 167 167 167 71 71 71 138 138 138 138 138 295 295 301 301 160 177 177 177
 177 177 177 177 125 101 101 101 101 57 68 68 167 167 167 167 340 138 138 138
 138 138 295 295 160 160 177 177 177 177 177 177 177 177 101 101 101 101 101 101
 68 68 68 167 167 167 340 340 82 82 82 82 295 295 160 160 177 177 177 177
 177 177 195 195 195 101 101 101 101 68 68 68 68 68 167 167 340 340 82 82
 82 115 115 115 115 160 177 177 177 177 177 177 195 195 195 19 101 101 101 68
 68 68 68 68 167 296 340 369 11 11 11 115 115 115 115 337 337 337 245 245
 245 233 195 195 195 195 19 101 403 68 68 68 68 68 296 296 369 369 11 11
 11 115 115 115 115 337 337 337 245 245 233 233 233 233 58 58 58 403 403 403
 68 176 176 176 296 296 369 11 11 11 11 115 115 115 115 337 337 337 337 233
 233 233 233 58 58 58 58 58 403 403 176 176 176 176 176 296 369 11 11 11
 107 107 115 115 115 337 337 337 337 211 211 211 211 58 58 58 58 108 108 403
 176 176 176 176 176 383 383 383 11 285 107 107 107 115 115 337 42 42 42 211
 211 211 211 211 58 58 108 108 108 85 176 176 176 176 176 383 383 383 383 285
 285 285 285 89 345 42 42 42 42 211 211 211 211 211 220 220 220 108 108 85
 85 176 176 176 176 383 383 383 383 285 285 285 89 89 89 42 42 42 42 211
 211 211 211 211 220 220 220 220 108 85 144 144 144 144 120 383 383 383 291 291
 291 285 89 89 89 6 6 6 6 6 211 211 211 211 220 220 220 191 191 144
 144 144 120 120 120 299 299 291 291 291 291 291 89 89 89 6 6 6 6 6
 211 211 211 350 255 255 255 255 191 124 124 21 120 120 120 299 299 291 291 291
 291 291 270 270 6 6 6 6 6 6 158 350 350 350 255 255 255 255 124 124
 124 145 145 145 145 145 299 291 291 291 291 270 270 270 6 6 6 6 6 6
 350 350 350 350 350 255 255 255 124 124 124 145 145 145 145 145 331 331 291 291
 270 270 270 348 348 6 6 6 6 6 350 350 350 350 350 350 268 268 124 124
 124 145 145 145 145 145 331 331 331 331 270 348 348 348 348 34 34 34 32 32
 32 63 350 350 350 350 268 268 268 124 124 145 145 145 61 61 331 331 331 331
 143 348 348 348 348 34 34 34 32 32 32 63 63 350 350 268 268 268 268 268
 45 45 45 61 61 61 61 331 331 331 150 150 150 348 348 34 34 34 34 32
 63 63 63 63 355 355 268 268 268 45 45 45 45 61 61 61 61 61 331 150
 150 150 150 150 36 34 34 34 34 32 63 63 63 355 355 355 355 355 268 45
 45 45 45 61 61 61 61 61 331 203 203 203 203 203 36 36 36 78 78 78
 185 185 355 355 355 355 355 355 355 45 262 262 262 61 129 129 129 129 129 203
 203 203 203 203 36 36 36 36 78 78 185 185 355 355 355 355 355 355 355 262
 262 262 262 262 129 129 129 129 203 203 203 203 203 203 36 36 36 36 78 78
 185 185 355 355 355 355 355 355 7 7 262 262 262 262 129 129 129 84 84 203
 203 203 203 203 36 36 36 333 78 356 75 185 355 355 355 355 355 355 7 7
 262 262 262 262 60 60 84 84 84 84 203 203 203 389 389 389 333 333 333 75
 75 75 235 235 235 355 355 355 7 7 262 262 262 60 60 60 84 84 84 84
 321 321 389 389 389 389 333 333 333 75 75 75 235 235 235 235 355 57 7 7
 57 57 57 60 60 60 60 84 84 84 138 138 389 389 389 389 333 333 333 75
 75 75 75 235 235 235 57 57 57 57 57 57 57 60 60 60 60 60 138 138
 138 138 389 301 301 389 389 333 333 75 75 75 75 235 235 1 1 1 1 57
 57 57 167 167 60 60 60 138 138 138 138 138 138 301 301 301 301 333 333 177
 75 75 75 125 1 1 1 1 1 1 57 167 167 167 167 71 71 138 138 138
 138 138 301 301 301 301 301 177 177 177 177 177 177 125 125 1 1 1 1 1
 167 167 167 167 167 71 71 138 138 138 138 138 295 295 301 301 357 357 177 177
 177 177 177 177 125 1 1 1 1 1 167 167 167 167 167 167 167 138 138 138
 138 295 295 295 295 357 357 357 177 177 177 177 177 177 125 101 101 101 101 101
 68 68 167 167 167 167 167 82 82 82 82 82 295 295 295 357 357 357 177 177
 177 177 195 195 195 195 101 101 101 68 68 68 68 167 167 167 167 82 82 82
 82 82 115 115 115 357 395 177 177 177 177 233 195 195 195 195 101 101 403 68
 68 68 68 167 167 167 369 369 82 82 82 115 115 115 115 337 395 395 395 233
 233 233 233 195 195 195 58 403 403 403 403 68 68 167 167 369 369 369 369 82
 82 115 115 115 115 337 337 395 395 233 233 233 233 233 58 58 58 403 403 403
 403 176 176 176 176 369 369 369 369 107 107 107 115 115 115 337 337 395 395 233
 233 233 233 58 58 58 58 58 403 403 176 176 176 176 176 369 369 369 11 107
 107 107 107 115 115 337 337 395 395 233 233 233 233 58 58 58 58 108 108 403
 176 176 176 176 176 46 46 46 46 107 107 107 107 345 345 345 345 345 345 211
 211 211 211 58 58 58 108 108 108 108 176 176 176 176 46 46 46 46 46 46
 107 107 107 345 345 345 345 345 345 211 211 211 211 211 58 58 108 108 108 108
 144 144 176 176 176 46 46 46 46 291 285 285 345 345 345 345 345 345 345 211
 211 211 211 211 220 220 108 108 108 144 144 144 144 144 144 201 46 46 291 291
 291 146 146 345 345 345 6 6 6 6 211 211 211 79 220 255 191 191 191 144
 144 144 144 120 120 201 201 291 291 291 291 146 146 146 345 6 6 6 6 6
 6 350 350 350 255 255 191 191 191 191 144 144 120 120 120 201 201 291 291 291
 291 146 146 146 6 6 6 6 6 6 6 350 350 350 350 255 255 191 191 124
 124 145 145 145 145 201 201 140 291 291 291 146 146 348 6 6 6 6 6 6
 350 350 350 350 350 350 191 191 124 124 124 145 145 145 145 145 140 140 140 291
 291 270 348 348 34 34 34 6 6 6 350 350 350 350 350 350 268 268 124 124
 124 145 145 145 145 145 331 331 331 331 150 348 348 348 348 34 34 34 34 32
 63 63 350 350 350 350 268 268 268 124 45 45 145 145 61 61 331 331 331 331
 150 150 348 348 348 34 34 34 32 32 63 63 63 63 350 268 268 268 268 268
 45 45 45 61 61 61 61 61 331 150 150 150 150 348 34 34 34 34 34 181
 63 63 63 63 252 252 252 252 45 45 45 45 45 61 61 61 61 61 61 150
 150 150 150 150 36 34 34 225 225 225 185 63 63 355 252 252 252 355 45 45
 45 45 45 61 61 61 61 61 61 150 150 150 150 36 36 36 36 225 225 225
 185 185 185 355 355 355 355 355 45 45 262 262 262 61 61 61 61 61 61 203
 203 203 203 36 36 36 36 36 225 356 185 185 185 355 355 355 355 355 355 262
 262 262 262 262 217 217 217 217 217 203 203 203 203 72 36 36 36 36 356 356
 356 185 185 355 355 355 355 355 262 262 262 262 262 262 217 217 217 217 321 321
 203 203 203 72 72 36 36 36 356 356 356 356 148 148 355 355 355 355 262 262
 262 262 262 262 217 217 217 217 321 321 321 321 72 389 389 389 389 389 356 356
 75 75 235 235 235 355 355 355 246 262 262 262 262 262 60 60 60 84 321 321
 321 321 389 389 389 389 389 389 389 75 75 75 235 235 235 235 355 246 246 246
 246 262 262 60 60 60 60 84 321 321 321 321 389 389 389 389 389 389 389 75
 75 75 235 235 235 235 246 246 246 246 246 57 262 60 60 60 60 60 138 138
 138 389 389 389 389 389 389 389 389 389 75 75 75 235 235 125 1 1 1 1
 57 167 167 100 167 60 60 138 138 138 138 138 301 301 301 301 389 389 389 177
 177 75 102 125 125 125 1 1 1 1 167 167 167 100 167 167 167 138 138 138
 138 138 301 301 301 301 301 357 357 177 177 177 125 125 125 125 1 1 1 1
 167 167 167 167 167 167 167 194 194 138 138 295 295 295 301 301 357 357 357 177
 177 177 177 180 180 125 1 1 1 1 167 167 167 167 167 167 167 194 194 194
 194 295 295 295 295 357 357 357 357 177 177 177 177 125 125 125 1 1 1 1
 167 167 167 167 167 167 167 194 82 82 82 82 295 295 295 295 357 357 357 177
 177 177 195 125 125 125 197 197 197 68 68 167 167 167 167 167 167 82 82 82
 82 82 295 295 295 295 395 395 177 177 233 233 233 278 278 197 197 197 403 403
 403 68 167 167 167 369 369 369 82 82 82 82 115 115 115 395 395 395 395 233
 233 233 233 233 195 58 197 197 403 403 403 403 68 167 167 369 369 369 369 82
 82 107 115 115 115 395 395 395 395 233 233 233 233 233 58 58 58 403 403 403
 403 403 176 390 369 369 369 369 369 369 107 107 107 115 115 395 395 395 395 233
 233 233 233 58 58 58 58 58 403 403 403 176 176 390 390 46 46 369 369 107
 107 107 107 107 345 345 345 395 395 233 233 233 233 58 58 58 58 108 108 403
 176 176 176 176 46 46 46 46 46 107 107 107 107 345 345 345 345 345 345 345
 282 282 282 58 58 58 58 108 108 108 176 176 176 176 46 46 46 46 46 46
 107 107 345 345 345 345 345 345 345 282 282 282 282 58 58 58 58 108 108 108
 144 144 144 144 46 46 46 46 46 46 107 107 345 345 345 345 345 345 345 282
 282 282 282 79 58 58 191 191 191 144 144 144 144 144 201 201 46 46 46 291
 146 146 146 345 345 345 345 345 345 27 282 282 282 79 79 191 191 191 191 144
 144 144 144 144 201 201 201 201 291 291 146 146 146 146 345 345 6 6 6 27
 27 27 350 79 191 191 191 191 191 191 144 144 144 201 201 201 201 201 291 291
 146 146 146 146 345 6 6 6 6 27 27 350 350 350 350 191 191 191 191 191
 388 388 388 201 201 201 201 140 140 291 146 146 146 146 146 6 6 6 6 27
 27 350 350 350 350 191 191 191 191 191 388 388 145 145 145 201 140 140 140 291
 146 146 146 348 34 34 34 34 34 34 350 350 350 350 350 350 191 191 191 124
 45 45 145 145 145 61 140 140 140 140 150 150 348 348 34 34 34 34 34 34
 63 63 350 350 350 350 268 268 268 124 45 45 45 45 61 61 61 331 331 331
 150 150 348 348 34 34 34 34 34 181 181 63 63 63 350 268 268 268 268 45
 45 45 45 45 61 61 61 61 61 150 150 150 150 348 34 34 34 225 225 181
 181 181 63 252 252 252 252 252 45 45 45 45 45 45 61 61 61 61 61 150
 150 150 150 150 36 225 225 225 225 225 181 185 252 252 252 252 252 252 45 45
 45 45 45 45 61 61 61 61 61 150 150 150 150 36 36 36 225 225 225 225
 185 185 185 252 252 252 252 252 45 45 45 45 45 45 61 61 217 217 217 147
 150 150 150 72 36 36 36 225 356 356 356 185 185 148 355 355 355 355 45 45
 262 262 262 262 217 217 217 217 217 321 203 203 72 72 72 36 36 36 356 356
 356 356 148 148 148 355 355 355 262 262 262 262 262 262 217 217 217 217 321 321
 321 72 72 72 72 36 36 36 356 356 356 356 148 148 148 148 355 246 246 262
 262 262 262 262 217 217 217 217 321 321 321 321 72 72 72 389 389 389 356 356
 356 356 148 148 148 148 355 246 246 246 246 262 262 262 217 217 217 321 321 321
 321 321 389 389 389 389 389 389 389 356 75 75 235 235 235 235 246 246 246 246
 246 246 262 60 60 60 60 321 321 321 321 321 389 389 389 389 389 389 389 389
 102 102 235 235 235 235 246 246 246 246 246 246 167 60 60 60 60 321 321 321
 321 321 389 389 389 389 389 389 389 389 102 102 102 235 125 125 1 1 246 246
 246 167 167 167 167 167 60 194 271 271 271 389 389 389 389 389 389 389 389 389
 102 102 102 125 125 125 1 1 1 1 167 167 167 167 167 167 167 194 194 271
 194 194 301 301 301 301 389 389 389 177 177 102 102 125 125 125 125 1 1 1
 167 167 167 167 167 167 167 194 194 194 194 194 295 295 301 301 357 357 357 357
 177 177 180 180 180 125 125 1 1 1 167 167 167 167 167 167 205 205 194 194
 194 194 295 295 295 357 357 357 357 357 177 177 125 125 125 125 125 1 1 1
 167 167 167 167 167 167 167 194 194 194 194 194 295 295 295 295 357 357 357 177
 177 177 278 278 125 125 197 197 197 197 167 167 167 167 167 167 167 82 82 82