# vtk DataFile Version 2.0
Data set from IO Version 6.4.197.9a0dee2
ASCII

DATASET RECTILINEAR_GRID
DIMENSIONS 31 31 31
X_COORDINATES 31 float
-4.416667 4.416667 13.250000 22.083334 30.916666 39.749996 48.583332 57.416664 66.250000 75.083336 83.916664 92.750000 101.583336 110.416664 119.250000 128.083328 136.916656 145.749985 154.583328 163.416656 172.249985 
181.083328 189.916656 198.749985 207.583328 216.416656 225.249985 234.083313 242.916656 251.749985 260.583344 
Y_COORDINATES 31 float
-4.416667 4.416667 13.250000 22.083334 30.916666 39.749996 48.583332 57.416664 66.250000 75.083336 83.916664 92.750000 101.583336 110.416664 119.250000 128.083328 136.916656 145.749985 154.583328 163.416656 172.249985 
181.083328 189.916656 198.749985 207.583328 216.416656 225.249985 234.083313 242.916656 251.749985 260.583344 
Z_COORDINATES 31 float
-4.416667 4.416667 13.250000 22.083334 30.916666 39.749996 48.583332 57.416664 66.250000 75.083336 83.916664 92.750000 101.583336 110.416664 119.250000 128.083328 136.916656 145.749985 154.583328 163.416656 172.249985 
181.083328 189.916656 198.749985 207.583328 216.416656 225.249985 234.083313 242.916656 251.749985 260.583344 
CELL_DATA 27000
SCALARS FeatureIds int 1
LOOKUP_TABLE default
 172 172 133 133 133 18 365 160 160 160 160 196 196 196 83 285 285 285 285 285
 157 157 157 157 157 115 115 115 172 172 172 172 133 120 133 18 160 160 160 160
 160 160 196 83 83 83 83 285 285 285 157 157 157 157 157 115 115 115 115 172
 172 120 120 120 120 120 248 248 160 160 160 160 83 83 83 83 83 83 285 285
 157 157 157 157 157 115 115 115 115 172 330 120 120 120 120 120 248 248 248 160
 160 237 273 273 273 273 83 70 70 70 157 157 157 157 157 115 115 115 115 330
 330 330 120 120 120 120 248 248 248 248 237 237 273 273 273 273 273 70 70 70
 36 36 36 36 61 61 61 115 330 330 330 330 381 120 120 120 248 248 248 237
 237 237 237 273 273 273 70 70 70 70 36 36 36 36 61 61 61 61 330 330
 330 381 381 381 120 297 297 297 237 237 237 237 237 273 273 131 131 70 70 70
 36 36 36 36 61 61 61 290 290 330 381 381 381 381 297 297 297 297 297 237
 237 237 237 237 131 131 131 131 131 45 45 45 30 30 30 61 290 290 290 290
 290 381 381 381 297 297 297 297 297 297 237 237 237 131 131 131 131 131 45 45
 45 45 30 30 30 30 290 290 290 290 290 290 290 290 297 297 297 297 297 297
 237 237 237 237 131 131 131 131 45 45 45 45 30 30 30 30 290 290 290 290
 290 290 290 290 337 337 297 297 297 297 62 62 62 62 131 131 131 131 45 45
 45 45 30 30 11 11 290 290 290 290 290 290 290 337 337 337 337 297 297 62
 62 62 62 62 335 335 335 131 45 45 45 153 153 153 153 153 290 290 290 290
 271 271 67 67 337 337 337 297 62 62 62 62 62 335 335 335 335 335 39 39
 39 39 153 153 153 153 153 271 271 271 271 271 67 67 67 337 337 62 62 62
 62 62 62 335 335 335 335 335 39 39 39 39 153 153 153 153 141 141 271 271
 271 271 67 67 67 67 191 191 191 62 62 62 62 335 335 335 335 335 39 39
 39 39 153 153 153 153 141 141 141 271 271 271 67 67 348 348 191 191 191 62
 210 210 210 335 335 299 299 299 39 39 39 39 343 343 343 141 141 141 141 141
 235 235 348 348 348 348 348 191 191 191 210 210 210 299 299 299 299 299 373 373
 373 343 343 343 343 343 141 141 141 141 235 235 348 348 348 348 348 348 94 94
 94 210 299 299 299 299 299 299 373 373 373 26 343 343 343 343 119 119 119 235
 235 235 235 348 348 348 348 94 94 94 94 94 299 299 299 299 299 299 373 373
 26 26 26 343 343 343 119 119 119 119 235 235 235 95 95 95 95 94 94 94
 94 94 94 299 299 299 299 24 24 26 26 26 26 343 343 343 119 119 119 119
 387 387 387 283 95 95 95 15 94 94 94 94 256 256 256 256 24 24 24 26
 26 26 26 26 394 394 119 119 119 119 387 387 387 283 283 283 15 15 15 94
 94 94 256 256 256 256 24 24 24 24 26 26 26 26 394 394 394 119 119 119
 387 387 283 283 283 283 15 15 15 94 94 94 256 256 256 256 256 24 24 24
 274 274 274 274 394 394 394 119 119 391 387 283 283 283 283 283 283 331 331 331
 331 219 219 256 256 256 256 24 24 274 274 274 274 274 394 394 394 119 391 391
 391 283 283 283 283 283 331 331 331 331 331 219 219 219 219 256 256 256 223 223
 274 274 274 274 274 340 340 391 391 391 391 133 133 133 133 133 331 331 331 331
 331 219 219 219 219 219 256 223 223 223 223 274 116 116 116 340 340 391 391 391
 391 133 133 133 133 133 173 173 331 331 331 219 219 219 219 219 219 223 223 223
 223 116 116 116 116 340 340 391 391 391 391 133 133 133 133 133 173 173 173 331
 331 219 219 219 219 219 219 285 223 223 223 116 116 116 116 116 56 391 391 391
 102 133 133 133 133 133 173 173 160 160 196 196 196 219 219 219 285 285 285 285
 223 116 116 116 116 116 56 102 102 102 102 172 133 133 133 18 365 160 160 160
 196 196 196 196 196 285 285 285 285 285 285 116 116 116 116 115 115 115 102 102
 102 102 133 133 133 18 160 160 160 160 160 196 196 196 212 285 285 285 285 285
 157 157 157 157 157 115 115 115 102 102 102 102 120 120 120 18 160 160 160 160
 160 160 196 196 83 83 285 285 285 285 157 157 157 157 157 115 115 115 115 102
 102 120 120 120 120 120 160 160 160 160 160 160 160 273 273 273 83 285 285 157
 157 157 157 157 157 128 115 115 115 172 330 120 120 120 120 120 248 248 248 160
 160 160 273 273 273 273 273 70 70 70 157 157 157 157 128 128 128 115 115 330
 330 330 120 120 120 120 248 248 248 248 237 237 273 273 273 273 273 70 70 70
 70 36 36 36 128 128 128 128 330 330 330 381 381 120 120 120 311 311 311 237
 237 237 273 273 273 273 70 70 70 70 70 36 36 36 36 61 61 61 330 330
 381 381 381 120 120 311 311 297 312 312 237 237 237 273 131 131 131 70 70 70
 36 36 36 36 36 61 61 290 290 330 381 381 381 381 90 90 297 297 297 312
 237 237 237 131 131 131 131 131 131 131 45 11 11 11 11 11 290 290 290 290
 381 381 381 90 90 90 297 297 297 297 237 237 237 131 131 131 131 131 45 45
 45 11 11 11 11 11 290 290 290 290 290 290 290 90 90 90 90 297 297 297
 237 237 237 131 131 131 131 131 45 45 45 11 11 11 11 11 290 290 290 290
 290 290 290 90 90 90 90 297 297 297 62 62 62 131 131 131 131 131 45 45
 45 11 11 11 11 11 11 290 290 290 290 290 290 337 337 337 337 297 297 62
 62 62 62 62 335 335 335 131 45 45 45 11 11 11 11 11 11 290 290 290
 271 271 67 67 337 337 165 165 165 62 62 62 62 62 335 335 335 244 39 39
 39 39 153 153 153 153 271 271 271 271 271 271 67 67 67 165 165 165 165 62
 62 62 62 335 335 335 335 244 39 39 39 39 153 153 153 107 107 271 271 271
 271 271 67 67 67 348 165 165 165 62 62 111 111 335 335 335 244 244 39 39
 39 39 153 153 153 107 107 107 271 271 271 271 67 348 348 348 348 348 191 111
 111 111 111 111 335 299 244 244 373 39 39 39 343 343 343 107 107 107 107 271
 235 235 348 348 348 348 348 348 191 111 111 111 111 299 299 299 299 373 373 373
 373 343 343 343 343 107 107 107 107 107 235 235 235 348 348 348 348 348 94 94
 94 111 111 299 299 299 299 299 373 373 373 343 343 343 343 343 107 119 119 235
 235 235 235 348 348 348 348 348 94 94 94 94 299 299 299 299 299 373 373 373
 373 26 26 343 343 343 119 119 119 235 235 235 235 235 95 95 95 94 94 94
 94 94 94 256 256 299 256 24 373 26 26 26 26 87 87 119 119 119 119 235
 235 387 387 283 95 95 95 15 94 94 94 94 256 256 256 256 256 24 24 26
 26 26 26 87 394 394 119 119 119 119 387 387 387 283 283 283 15 15 15 94
 94 94 256 256 256 256 256 24 24 24 26 26 26 394 394 226 394 119 119 119
 387 387 283 283 283 283 283 331 331 331 331 219 256 256 256 256 256 256 24 24
 274 274 274 274 394 394 394 119 119 119 387 283 283 283 283 283 331 331 331 331
 331 219 219 219 256 256 256 256 223 223 223 274 274 274 394 394 394 119 391 391
 391 283 283 283 283 283 331 331 331 331 331 219 219 219 219 256 256 223 223 223
 223 223 274 274 340 340 340 391 391 391 391 133 133 133 133 133 331 331 331 331
 331 219 219 219 219 219 223 223 223 223 223 223 116 116 340 340 340 391 391 391
 391 133 133 133 133 133 173 173 331 331 331 219 219 219 219 219 223 223 223 223
 223 223 116 116 340 340 340 391 391 391 391 133 133 133 133 133 173 173 173 331
 331 219 219 219 219 219 285 285 223 223 223 223 116 116 116 340 340 391 391 391
 102 133 133 133 133 18 173 173 173 160 196 196 196 219 219 285 285 285 285 285
 223 223 116 116 116 340 340 102 102 102 102 102 133 133 133 18 18 160 160 160
 196 196 196 196 196 285 285 285 285 285 285 157 157 157 157 115 115 102 102 102
 102 102 133 133 133 18 160 160 160 160 160 196 196 212 212 212 285 285 285 285
 168 157 157 157 157 33 401 401 102 102 102 185 185 120 133 18 395 395 160 160
 160 160 196 212 212 212 212 212 212 168 157 157 157 157 157 128 128 115 102 102
 185 185 120 120 120 120 395 160 160 160 160 160 273 212 212 212 212 212 212 168
 157 157 157 157 128 128 128 128 185 185 185 185 120 120 120 120 395 160 160 160
 160 273 273 273 273 273 273 70 70 70 157 157 157 128 128 128 128 128 185 185
 185 185 120 120 120 120 311 311 311 312 27 273 273 273 273 273 273 70 70 70
 36 36 36 36 128 128 128 128 185 185 185 185 185 120 311 311 311 311 311 312
 312 237 273 273 273 273 273 70 70 70 36 36 36 36 128 128 128 128 185 185
 381 381 381 381 311 311 311 311 312 312 312 237 273 273 131 131 131 70 70 70
 36 36 36 36 11 11 128 128 294 330 381 381 381 90 90 90 311 311 312 312
 312 237 237 131 131 131 131 131 131 45 11 11 11 11 11 11 11 290 290 290
 381 381 381 90 90 90 90 90 312 312 312 237 237 131 131 131 131 131 45 45
 45 11 11 11 11 11 11 290 290 290 290 381 381 90 90 90 90 90 297 297
 312 237 237 131 131 131 131 131 45 45 45 11 11 11 11 11 11 290 290 290
 290 290 90 90 90 90 90 90 297 297 62 62 62 131 131 131 131 45 45 45
 45 11 11 11 11 11 11 290 290 79 79 79 90 90 90 90 90 165 165 62
 62 62 62 62 335 335 131 45 45 45 45 11 11 11 11 11 11 79 79 79
 271 271 271 90 90 165 165 165 165 165 62 62 62 62 335 335 244 244 244 39
 39 11 11 11 11 11 107 377 377 377 271 271 271 67 165 165 165 165 165 165
 62 62 62 335 335 244 244 244 244 39 39 39 153 153 153 107 107 107 377 377
 271 271 159 166 165 165 165 165 165 165 111 111 111 111 244 244 244 244 244 244
 39 39 153 153 153 107 107 107 107 271 271 235 159 159 348 348 348 165 165 111
 111 111 111 111 244 244 244 244 244 244 39 39 343 343 343 107 107 107 107 107
 235 235 235 348 348 348 348 348 348 111 111 111 111 111 244 244 244 244 244 373
 373 343 343 343 343 107 107 107 107 107 235 235 235 348 348 348 348 348 348 111
 111 111 111 111 299 244 244 244 373 373 373 87 87 87 87 107 107 107 107 235
 235 235 235 348 348 348 348 348 94 94 94 111 111 111 299 299 244 244 373 373
 373 87 87 87 87 87 119 119 119 235 235 235 235 235 95 95 95 95 94 94
 255 255 255 256 256 299 254 254 254 26 26 87 87 87 87 87 119 119 119 235
 235 235 235 283 283 95 95 95 94 94 255 255 256 256 256 256 256 24 254 26
 26 87 87 87 87 394 119 119 119 235 387 387 283 283 283 283 283 331 331 255
 255 255 256 256 256 256 256 256 24 223 26 87 87 87 394 394 394 119 119 235
 283 283 283 283 283 283 331 331 331 331 331 219 256 256 256 256 256 256 223 223
 223 274 274 87 394 394 394 119 119 235 283 283 283 283 283 283 331 331 331 331
 331 219 219 219 256 256 256 223 223 223 223 223 223 96 394 394 394 74 74 391
 391 283 283 283 283 283 331 331 331 331 331 219 219 219 219 256 256 223 223 223
 223 223 223 223 340 340 340 340 391 391 391 133 133 133 133 133 331 331 331 331
 331 219 219 219 219 219 223 223 223 223 223 223 223 223 340 340 340 340 391 391
 391 133 133 133 133 133 133 173 331 331 331 219 219 219 219 219 223 223 223 223
 223 223 223 116 340 340 340 340 391 391 391 133 133 133 133 133 173 173 173 331
 331 219 219 219 219 219 223 223 223 223 223 223 223 116 340 340 340 391 391 391
 102 133 133 133 133 133 133 173 160 160 160 196 196 219 219 212 285 285 285 223
 223 223 223 116 33 33 401 401 401 102 102 102 133 133 133 18 160 160 160 160
 160 196 196 196 212 212 285 285 285 285 223 168 157 157 33 33 401 401 401 102
 102 185 185 133 133 18 160 395 160 160 160 160 212 212 212 212 212 212 168 168
 168 168 157 33 33 33 401 401 401 102 185 185 185 185 185 395 395 395 395 160
 160 160 212 212 212 212 212 212 212 168 168 168 157 157 33 33 128 401 185 185
 185 185 185 185 185 185 395 395 160 160 27 27 27 212 212 212 212 212 212 168
 168 168 157 128 128 128 128 128 185 185 185 185 185 185 185 120 311 395 27 27
 27 27 27 273 273 273 212 212 212 168 168 128 128 128 128 128 128 128 185 185
 185 185 185 185 185 311 311 311 311 27 27 27 27 273 273 273 273 70 70 70
 215 36 36 128 128 128 128 128 185 185 185 185 185 185 311 311 311 311 311 312
 27 27 273 273 273 273 273 70 70 70 215 36 36 128 128 128 128 128 185 185
 294 185 185 185 311 311 311 311 312 312 312 312 273 273 273 131 131 55 55 55
 215 11 11 11 11 11 128 294 294 294 294 381 381 90 90 311 311 311 312 312
 312 312 237 131 131 131 55 55 55 55 11 11 11 11 11 11 11 294 294 294
 294 381 381 90 90 90 90 311 312 312 312 312 306 131 131 131 55 55 55 45
 11 11 11 11 11 11 11 294 294 294 294 381 90 90 90 90 90 90 312 312
 312 312 306 131 131 131 55 55 45 45 11 11 11 11 11 11 11 11 294 294
 79 79 90 90 90 90 90 90 312 312 312 62 62 131 131 131 55 45 45 45
 11 11 11 11 11 11 11 11 79 79 79 79 90 90 90 90 90 165 165 165
 62 62 62 62 244 244 244 244 45 45 11 11 11 11 11 11 11 79 79 79
 79 79 175 166 90 165 165 165 165 165 62 62 62 62 244 244 244 244 244 244
 305 305 305 11 11 11 107 107 377 79 271 271 166 166 166 165 165 165 165 165
 111 111 111 111 244 244 244 244 244 244 305 305 305 305 11 107 107 107 377 377
 271 339 159 166 166 165 165 165 165 165 111 111 111 111 244 244 244 244 244 244
 305 305 305 305 107 107 107 107 107 107 339 339 159 159 166 165 165 165 165 111
 111 111 111 111 244 244 244 244 244 244 244 305 305 92 107 107 107 107 107 107
 235 339 159 159 348 348 348 165 165 111 111 111 111 111 244 244 244 244 244 244
 232 232 92 92 92 107 107 107 107 107 235 235 235 348 348 348 348 348 348 111
 111 111 111 111 244 244 244 244 244 244 232 232 87 87 87 107 107 107 107 235
 235 235 235 235 348 348 348 205 255 255 255 111 111 111 244 244 254 254 254 254
 232 232 87 87 87 87 107 107 107 235 235 235 235 235 95 95 95 255 255 255
 255 255 255 255 254 254 254 254 254 254 232 87 87 87 87 87 80 80 119 235
 235 235 235 283 283 283 95 255 255 255 255 255 255 255 256 254 254 254 254 254
 232 87 87 87 87 87 119 119 119 235 235 235 283 283 283 283 283 255 255 255
 255 255 20 20 256 256 254 254 254 254 223 87 87 87 87 394 394 119 235 235
 283 283 283 283 283 283 331 331 331 255 255 20 20 20 139 139 139 223 223 223
 223 223 96 96 96 394 74 74 74 235 283 283 283 283 283 283 331 331 331 331
 331 20 20 20 139 139 139 223 223 223 223 223 96 96 96 96 74 74 74 74
 283 283 283 283 283 283 331 331 331 331 331 219 219 219 139 139 139 223 223 223
 223 223 96 96 96 96 74 74 74 74 391 283 283 133 133 133 331 331 331 331
 331 181 219 219 219 219 223 223 223 223 223 223 223 96 96 340 340 340 391 391
 391 133 133 133 133 133 133 331 331 331 181 181 219 219 219 219 223 223 223 223
 223 223 223 96 340 340 340 340 391 391 391 133 133 133 133 133 173 173 173 331
 181 181 181 219 219 212 223 223 223 223 223 223 223 33 340 340 340 401 401 391
 102 133 133 133 133 133 133 160 160 160 181 181 181 181 212 212 212 168 168 168
 168 168 33 33 33 33 401 401 401 401 102 102 133 133 133 133 160 160 160 160
 160 160 181 212 212 212 212 168 168 168 168 168 168 33 33 33 401 401 401 401
 185 185 185 224 224 18 395 395 160 160 160 160 212 212 212 212 212 212 168 168
 168 168 168 33 33 33 33 401 6 6 185 185 185 185 185 185 395 395 395 27
 27 27 212 212 212 212 212 212 168 168 168 168 157 33 33 33 33 6 185 185
 185 185 185 185 185 185 395 395 27 27 27 27 27 212 212 212 212 212 212 168
 168 168 128 128 128 128 128 128 185 185 185 185 185 185 185 311 311 311 27 27
 27 27 27 212 212 212 212 212 212 236 236 236 128 128 128 128 128 128 185 185
 185 185 185 185 185 311 311 311 311 27 27 27 27 27 273 212 212 212 55 236
 215 215 128 128 128 128 128 128 185 185 185 185 185 185 311 311 311 311 311 27
 27 27 27 27 273 273 55 55 55 55 215 215 215 128 128 128 128 128 185 185
 294 185 185 185 311 311 311 311 311 312 312 27 306 306 306 55 55 55 55 55
 215 215 11 11 11 11 128 294 294 294 294 294 381 185 268 268 311 311 312 312
 312 312 306 306 306 55 55 55 55 55 215 11 11 11 11 11 11 294 294 294
 294 294 90 90 90 90 90 311 312 312 312 312 306 306 306 55 55 55 55 55
 11 11 11 11 11 11 11 294 294 294 294 294 90 90 90 90 90 90 312 296
 296 296 306 306 306 55 55 55 55 55 11 11 11 11 11 11 11 294 294 294
 79 79 90 90 90 90 90 90 296 296 296 296 306 306 306 55 55 55 55 45
 11 11 11 11 11 11 11 11 79 79 230 230 175 90 90 90 90 90 165 296
 296 62 293 293 244 244 244 244 244 45 11 11 11 11 11 11 11 79 79 79
 230 230 175 175 90 165 165 165 165 165 165 111 293 293 244 244 244 244 244 244
 305 305 305 11 11 11 107 107 79 230 230 339 175 166 166 165 165 165 165 165
 111 111 111 244 244 188 188 244 244 244 305 305 305 305 11 107 107 107 107 107
 339 339 159 166 166 166 165 165 165 165 111 111 111 111 244 188 244 244 244 244
 305 305 305 305 305 107 107 107 107 107 339 339 159 159 166 166 165 165 165 111
 111 111 111 111 244 244 244 244 244 244 244 305 92 92 92 107 107 107 107 107
 339 339 339 159 205 205 205 205 205 111 111 111 111 111 244 244 244 244 244 244
 232 232 92 92 92 107 107 107 107 107 235 235 235 159 205 205 205 205 205 255
 111 111 111 111 244 244 244 244 244 244 232 232 92 92 92 92 107 107 107 107
 235 43 43 43 205 205 205 205 255 255 255 143 143 143 244 244 254 254 254 254
 232 232 87 87 87 87 80 80 80 235 235 43 43 43 205 205 205 205 255 255
 255 255 143 143 143 254 254 254 254 254 232 232 87 87 87 87 80 80 80 235
 235 43 43 283 283 283 205 255 255 255 255 255 255 255 255 254 254 254 254 254
 232 87 87 87 87 87 80 80 80 235 235 235 283 283 283 283 255 255 255 255
 255 255 20 20 20 139 254 254 254 254 223 96 96 96 96 96 74 74 74 235
 235 283 283 283 283 283 283 255 255 255 255 20 20 20 20 139 139 223 223 223
 223 322 96 96 96 96 74 74 74 74 283 283 283 283 283 283 331 331 331 331
 255 20 20 20 20 139 139 223 223 223 223 322 96 96 96 96 74 74 74 74
 127 283 283 283 283 283 331 331 331 331 181 181 20 20 20 139 223 223 223 223
 223 223 96 96 96 96 74 74 74 74 211 211 283 133 133 360 331 331 331 331
 181 181 181 20 20 139 223 223 223 223 223 223 96 96 96 96 74 74 74 74
 211 211 211 360 360 360 360 331 331 181 181 181 181 181 219 223 223 223 223 223
 223 223 223 96 96 340 6 6 391 391 211 211 211 360 360 360 360 360 22 22
 181 181 181 181 181 212 223 223 223 223 223 223 223 33 33 33 6 6 6 391
 211 211 224 224 360 360 360 360 22 22 181 181 181 181 212 212 212 168 168 168
 168 168 168 33 33 33 6 401 401 401 102 211 224 224 360 360 360 160 160 160
 181 181 181 212 212 212 212 168 168 168 168 168 168 33 33 33 33 401 401 401
 185 185 224 224 224 190 190 395 160 160 27 212 212 212 212 212 212 212 168 168
 168 168 168 33 33 33 33 6 6 6 185 185 185 185 185 190 190 395 27 27
 27 27 212 212 212 212 212 212 168 168 168 168 342 342 33 33 33 6 6 185
 185 185 185 185 185 190 395 395 27 27 27 27 27 212 212 212 212 212 212 236
 236 236 236 342 128 128 128 313 185 185 185 185 185 185 185 185 311 27 27 27
 27 27 27 212 212 212 212 212 212 236 236 236 236 236 128 128 128 313 185 185
 185 185 185 185 185 311 311 311 27 27 27 27 27 27 212 212 212 212 236 236
 236 236 236 236 128 128 128 313 185 185 185 185 185 185 185 311 311 311 311 27
 27 27 27 282 282 55 55 55 55 215 215 215 215 215 128 128 128 313 185 185
 294 185 185 185 388 268 311 311 311 309 27 27 306 306 306 55 55 55 55 215
 215 215 215 215 11 11 294 294 294 294 294 294 185 388 268 268 311 311 311 312
 312 27 306 306 306 55 55 55 55 215 215 215 215 11 11 11 145 294 294 294
 294 294 28 28 90 268 311 311 296 296 296 296 306 306 306 55 55 55 55 55
 215 215 11 11 11 11 145 294 294 294 294 28 28 28 90 90 90 90 296 296
 296 296 306 306 306 55 55 55 55 55 11 11 11 11 11 11 145 294 294 294
 230 28 28 28 90 90 90 90 296 296 296 296 296 306 306 55 55 55 55 55
 11 11 11 11 11 11 145 145 294 79 230 230 175 175 90 90 90 165 296 296
 296 296 293 293 293 293 244 244 244 244 11 11 11 11 11 11 11 79 79 230
 230 230 175 175 175 165 165 165 165 165 165 293 293 293 293 293 244 244 244 244
 305 305 305 11 11 11 107 107 79 230 230 230 175 166 166 166 165 165 165 165
 111 111 293 293 293 188 188 244 244 244 305 305 305 305 305 107 107 107 107 230
 339 339 339 166 166 166 165 165 165 165 111 111 293 293 244 244 244 244 244 244
 305 305 305 305 305 107 107 107 107 107 339 339 339 166 166 205 205 165 165 111
 111 111 111 111 244 244 244 244 244 244 244 305 92 92 92 107 107 107 107 339
 339 339 339 339 205 205 205 205 205 111 111 111 111 111 244 244 244 244 244 244
 232 232 92 92 92 92 202 107 107 107 339 339 339 339 205 205 205 205 205 143
 143 143 143 143 244 244 244 244 244 244 232 232 92 92 92 92 202 202 202 107
 43 43 43 43 205 205 205 205 255 255 143 143 143 143 341 341 254 254 254 254
 232 232 92 92 92 80 80 80 80 80 43 43 43 43 205 205 205 205 255 255
 255 143 143 143 341 341 254 254 254 254 232 232 87 87 87 80 80 80 80 80
 43 43 43 43 205 205 205 255 255 255 255 255 143 143 143 341 254 254 254 254
 232 87 87 87 87 80 80 80 80 80 43 43 43 283 372 372 372 255 255 255
 255 255 20 20 20 20 254 254 254 167 167 96 96 96 96 96 74 74 74 74
 127 127 283 283 372 372 372 372 255 255 255 255 20 20 20 20 139 254 223 167
 322 322 96 96 96 96 74 74 74 74 127 127 127 283 372 372 372 372 255 255
 255 20 20 20 20 20 171 171 223 223 322 322 96 96 96 96 74 74 74 74
 127 127 127 127 372 372 372 372 372 181 181 181 20 20 20 20 171 171 223 223
 223 322 96 96 96 96 74 74 74 74 127 127 127 127 360 360 360 360 181 181
 181 181 181 20 20 171 171 171 223 223 223 223 96 96 96 96 74 74 74 74
 211 211 211 360 360 360 360 360 22 181 181 181 181 181 386 386 171 171 223 223
 223 223 227 227 227 227 6 6 6 222 211 211 211 360 360 360 360 360 22 22
 181 181 181 181 386 386 386 168 168 168 168 168 227 227 227 33 6 6 6 6
 211 211 211 224 360 360 360 360 22 22 181 181 181 181 212 212 212 168 168 168
 168 168 227 33 33 33 6 6 6 6 211 211 224 224 360 360 360 360 160 181
 181 181 181 212 212 212 212 168 168 168 168 168 168 33 33 33 6 6 6 6
 185 185 185 185 190 190 190 190 247 27 27 212 212 212 212 212 212 212 168 168
 168 168 342 342 33 33 6 6 6 6 185 185 185 185 190 190 190 190 27 27
 27 27 212 212 212 212 212 212 168 168 168 236 342 342 342 33 6 6 6 185
 185 185 185 185 190 190 190 190 27 27 27 27 27 212 212 212 212 212 212 236
 236 236 236 342 342 313 313 313 313 185 185 185 185 185 185 190 190 27 27 27
 27 27 27 212 212 212 212 212 236 236 236 236 236 236 236 313 313 313 313 185
 185 185 185 185 185 311 311 311 309 27 27 27 282 282 282 212 212 212 236 236
 236 236 236 236 236 313 313 313 313 185 185 185 185 185 388 388 311 311 309 309
 309 27 282 282 282 282 55 55 55 215 215 215 236 236 236 313 313 313 313 185
 185 185 185 388 388 388 388 311 309 309 309 309 282 282 282 55 55 55 55 215
 215 215 215 215 215 145 313 294 294 294 294 185 28 388 388 388 388 388 309 309
 309 309 306 306 306 55 55 55 55 215 215 215 215 215 145 145 145 145 294 294
 177 28 28 28 388 388 388 388 296 296 296 296 306 306 306 55 55 55 55 215
 215 215 215 11 145 145 145 145 294 177 177 28 28 28 28 388 388 296 296 296
 296 296 306 306 306 55 55 55 55 215 215 11 11 11 145 145 145 145 177 177
 177 28 28 28 28 28 90 296 296 296 296 296 296 306 306 65 65 65 65 65
 197 11 11 11 11 145 145 145 177 177 230 175 175 175 175 175 52 296 296 296
 296 296 293 293 293 65 65 65 65 65 197 11 11 11 11 145 145 316 177 230
 230 230 175 175 175 175 52 52 52 296 296 293 293 293 293 293 65 65 65 65
 305 305 305 11 11 316 316 316 316 230 230 175 175 175 166 166 52 52 52 52
 293 293 293 293 293 244 244 244 244 244 305 305 305 305 305 316 316 316 107 230
 339 339 175 166 166 166 52 52 52 52 293 293 293 293 293 244 244 244 244 244
 40 40 40 40 40 107 107 107 107 107 339 339 339 166 166 205 205 205 52 52
 111 111 124 293 244 244 244 244 244 244 40 40 40 92 92 202 202 202 202 202
 339 339 339 339 205 205 205 205 205 143 111 124 124 124 244 244 244 244 244 244
 40 40 92 92 92 202 202 202 202 202 339 339 339 205 205 205 205 205 205 143
 143 143 143 143 244 244 244 244 244 244 232 232 92 92 92 202 202 202 202 202
 43 43 43 43 205 205 205 205 205 143 143 143 143 143 341 341 341 254 254 254
 232 232 92 92 92 209 202 202 202 202 43 43 43 43 205 205 205 205 255 255
 143 143 143 143 341 341 341 254 254 167 167 232 92 92 209 209 80 80 80 80
 43 43 43 43 205 205 205 255 255 255 255 143 143 143 341 341 341 254 167 167
 167 167 245 245 209 209 80 80 80 80 43 43 43 372 372 372 372 372 255 255
 255 255 143 20 20 341 341 167 167 167 167 96 245 245 245 209 74 74 74 74
 127 127 127 372 372 372 372 372 255 255 255 255 20 20 20 20 20 167 167 167
 167 96 96 96 96 96 74 74 74 74 127 127 127 127 372 372 372 372 372 255
 255 20 20 20 20 20 171 171 171 167 322 322 96 96 96 96 74 74 74 74
 127 127 127 127 372 372 372 372 372 181 181 181 20 20 20 171 171 171 171 171
 223 322 96 96 96 96 74 74 74 127 127 127 127 218 218 372 372 372 181 181
 181 181 181 181 20 171 171 171 171 171 223 223 96 227 227 96 74 74 74 127
 211 211 211 218 360 360 360 360 181 181 181 181 181 181 386 386 171 171 171 171
 223 227 227 227 227 227 6 6 6 222 211 211 211 218 360 360 360 360 181 181
 181 181 181 181 386 386 386 171 171 168 168 227 227 227 227 227 6 6 6 222
 211 211 211 224 360 360 360 360 181 181 181 181 181 181 386 386 386 168 168 168
 168 168 227 227 227 6 6 6 6 6 211 211 224 224 360 360 360 247 181 181
 181 181 181 212 212 212 212 168 168 168 168 168 227 33 33 33 6 6 6 6
 185 185 185 185 190 190 190 247 247 247 27 142 212 212 212 212 212 212 168 168
 168 93 342 342 342 6 6 6 6 6 185 185 185 185 190 190 190 190 247 27
 27 142 212 212 212 212 212 212 168 236 236 236 342 342 342 342 6 6 6 185
 185 185 185 185 190 190 190 190 27 27 142 142 142 212 212 212 212 212 236 236
 236 236 236 342 342 313 313 313 313 185 185 185 185 185 185 190 190 190 27 27
 142 142 282 282 212 212 212 212 236 236 236 236 236 236 236 313 313 313 313 185
 185 185 185 185 185 190 311 309 309 309 309 27 282 282 282 212 212 212 236 236
 236 236 236 236 236 313 313 313 313 185 185 185 185 185 388 388 388 309 309 309
 309 309 282 282 282 282 55 55 236 236 236 236 236 236 236 313 313 313 313 185
 185 185 185 388 388 388 388 388 309 309 309 309 282 282 282 282 55 55 55 215
 215 215 215 215 215 145 313 313 294 294 294 28 28 388 388 388 388 388 309 309
 309 309 282 282 282 282 55 55 55 215 215 215 215 215 145 145 145 145 294 294
 177 28 28 28 388 388 388 388 296 296 296 296 306 306 306 55 55 55 397 215
 215 215 215 215 145 145 145 145 177 177 177 28 28 28 28 388 388 296 296 296
 296 296 296 306 306 55 55 65 65 197 197 197 197 197 145 145 145 145 177 177
 177 28 28 28 28 28 388 296 296 296 296 296 296 400 19 65 65 65 65 197
 197 197 197 197 145 145 145 145 177 177 230 175 175 175 28 28 52 52 296 296
 296 296 293 293 293 65 65 65 65 197 197 197 197 197 316 316 316 316 316 32
 32 175 175 175 175 231 52 52 52 52 296 293 293 293 293 293 65 65 65 65
 40 40 40 40 316 316 316 316 316 32 32 175 175 175 231 231 52 52 52 52
 52 293 293 293 293 244 244 244 244 40 40 40 40 40 40 316 316 316 32 32
 32 339 175 175 231 231 52 52 52 52 52 293 293 293 293 244 244 244 244 40
 40 40 40 40 40 316 316 32 32 32 32 339 339 166 166 205 52 52 52 52
 124 124 124 124 244 244 244 244 244 40 40 40 40 40 40 202 202 202 202 32
 339 339 339 205 205 205 205 336 336 143 124 124 124 124 124 244 244 244 244 40
 40 40 40 40 40 202 202 202 202 202 184 339 184 205 205 205 205 205 336 143
 143 143 124 124 124 341 244 244 244 40 40 40 40 92 209 202 202 202 202 202
 43 43 43 205 205 205 205 205 205 143 143 143 143 143 341 341 341 341 254 40
 40 40 209 209 209 209 202 202 202 202 43 43 43 205 205 205 205 205 143 143
 143 143 143 143 341 341 341 341 167 167 167 167 209 209 209 209 209 202 202 202
 243 243 243 243 205 205 205 205 279 279 143 143 143 143 341 341 341 341 167 167
 167 167 245 245 209 209 209 209 209 243 243 243 243 372 372 372 372 372 279 279
 279 143 143 20 341 341 341 167 167 167 167 167 245 245 245 209 209 209 217 217
 217 127 127 372 372 372 372 372 279 279 279 255 20 20 20 20 341 167 167 167
 167 167 245 245 245 209 74 74 217 217 127 127 127 218 372 372 372 372 372 279
 279 20 20 20 20 171 171 171 171 167 167 167 96 96 96 96 74 74 217 217
 127 127 127 218 218 372 372 372 372 181 181 181 181 20 20 171 171 171 171 171
 171 322 96 96 96 96 74 74 217 127 127 127 127 218 218 218 372 372 181 181
 181 181 181 386 386 171 171 171 171 171 171 227 227 227 227 227 74 222 222 222
 222 127 218 218 218 218 218 372 181 181 181 181 181 386 386 386 171 171 171 171
 171 227 227 227 227 227 6 222 222 222 222 222 218 218 218 360 360 247 181 181
 181 181 181 386 386 386 386 171 171 171 168 227 227 227 227 227 6 6 222 222
 222 222 218 218 218 360 247 247 247 181 181 181 181 386 386 386 386 386 168 168
 168 227 227 227 227 6 6 6 6 222 222 222 224 224 190 190 247 247 247 181
 181 181 181 386 386 386 386 168 168 168 168 93 227 227 227 6 6 6 6 6
 152 152 152 152 190 190 247 247 247 247 247 142 142 212 212 212 212 212 168 168
 93 93 93 342 342 150 150 150 150 222 152 152 152 185 190 190 190 247 247 247
 142 142 142 212 212 212 212 212 236 236 236 236 342 342 342 150 150 150 150 150
 152 152 152 185 190 190 190 247 247 142 142 142 142 212 212 212 212 212 236 236
 236 236 236 342 342 313 313 313 313 185 185 185 185 185 185 190 190 247 142 142
 142 142 142 282 212 212 212 212 236 236 236 236 236 236 236 313 313 313 313 313
 185 185 185 185 389 389 389 309 309 309 309 142 282 282 282 212 212 212 236 236
 236 236 236 236 236 313 313 313 313 313 185 185 185 185 389 389 389 309 309 309
 309 309 282 282 282 282 282 397 397 236 374 236 236 236 318 318 313 313 313 185
 185 185 185 388 388 388 388 388 309 309 309 309 282 282 282 282 397 397 397 397
 215 215 215 215 318 318 313 313 313 183 177 28 28 388 388 388 388 388 309 309
 309 309 38 282 282 282 397 397 397 397 215 215 197 197 145 145 145 145 145 177
 177 28 28 28 388 388 388 388 296 296 296 296 38 282 282 397 397 397 397 397
 197 197 197 197 145 145 145 145 145 177 177 28 28 28 28 388 388 296 296 296
 296 296 296 400 19 397 397 397 397 197 197 197 197 197 145 145 145 145 177 177
 177 28 28 28 28 28 388 296 296 296 296 296 400 400 19 19 65 65 65 197
 197 197 197 197 145 145 145 145 177 177 177 175 175 175 231 231 231 296 296 296