# vtk DataFile Version 2.0
Data set from IO Version 6.4.197.9a0dee2
ASCII

DATASET RECTILINEAR_GRID
DIMENSIONS 31 31 31
X_COORDINATES 31 float
-5.850000 5.850000 17.549999 29.249998 40.950001 52.650002 64.349998 76.050003 87.750000 99.449997 111.150002 122.849998 134.549988 146.249985 157.949997 169.649994 181.349991 193.049988 204.749985 216.449997 228.149994 
239.849991 251.549988 263.250000 274.949982 286.649994 298.349976 310.049988 321.750000 333.449982 345.149994 
Y_COORDINATES 31 float
-5.850000 5.850000 17.549999 29.249998 40.950001 52.650002 64.349998 76.050003 87.750000 99.449997 111.150002 122.849998 134.549988 146.249985 157.949997 169.649994 181.349991 193.049988 204.749985 216.449997 228.149994 
239.849991 251.549988 263.250000 274.949982 286.649994 298.349976 310.049988 321.750000 333.449982 345.149994 
Z_COORDINATES 31 float
-5.850000 5.850000 17.549999 29.249998 40.950001 52.650002 64.349998 76.050003 87.750000 99.449997 111.150002 122.849998 134.549988 146.249985 157.949997 169.649994 181.349991 193.049988 204.749985 216.449997 228.149994 
239.849991 251.549988 263.250000 274.949982 286.649994 298.349976 310.049988 321.750000 333.449982 345.149994 
CELL_DATA 27000
SCALARS FeatureIds int 1
LOOKUP_TABLE default
 71 71 36 36 36 36 36 36 349 349 389 389 389 312 312 312 312 114 114 114
 114 34 34 34 34 34 34 34 71 71 125 125 36 36 36 36 36 36 349 349
 389 389 389 312 312 312 312 312 114 114 114 34 34 34 34 34 34 34 71 71
 125 125 125 36 36 36 36 36 36 359 359 359 312 312 312 312 312 312 114 114
 325 325 325 34 34 34 34 34 33 33 125 125 125 36 36 36 36 59 59 359
 359 144 144 312 312 312 312 312 114 180 325 325 325 325 34 34 182 182 33 33
 33 125 125 125 199 199 59 59 59 359 144 144 144 75 75 75 75 75 75 180
 325 325 325 355 182 182 182 182 182 33 33 216 216 216 199 199 59 59 59 37
 144 144 144 75 75 75 75 75 75 180 180 355 355 355 182 182 182 182 182 33
 216 216 216 216 199 199 59 59 59 37 144 144 144 75 75 75 75 75 75 180
 180 355 355 355 182 182 182 182 182 182 216 216 216 216 216 199 59 59 59 37
 144 144 44 44 75 75 75 75 180 180 180 355 355 355 182 182 182 182 182 182
 182 216 216 216 216 212 212 212 59 37 44 44 44 44 44 234 234 234 180 180
 142 142 142 182 182 182 182 182 182 182 182 216 216 216 212 212 212 212 212 256
 44 44 44 44 234 234 234 234 166 166 142 142 142 142 142 182 182 182 182 182
 182 136 136 136 212 212 212 212 256 256 256 44 44 44 44 234 234 234 166 166
 142 142 142 142 142 168 168 168 182 182 136 136 136 136 212 212 212 212 256 256
 256 44 44 44 44 44 234 166 166 166 372 142 142 142 142 168 168 168 168 182
 136 136 136 136 191 191 191 191 256 256 256 256 43 43 43 43 166 166 166 166
 372 372 372 142 142 168 168 168 147 147 136 136 136 136 191 191 191 191 191 191
 191 43 43 43 43 43 166 166 166 372 372 372 372 372 372 168 147 147 147 147
 136 136 136 136 191 191 191 191 191 191 191 191 43 43 43 43 166 166 340 340
 372 372 372 372 215 215 147 147 147 147 57 136 150 150 150 191 191 191 191 191
 191 191 43 43 43 197 197 197 340 340 340 372 372 215 215 215 215 147 57 57
 57 150 150 150 227 227 191 191 191 191 191 46 46 46 197 197 197 197 197 340
 340 340 291 291 291 215 215 57 57 57 57 150 150 150 227 227 106 106 106 191
 46 46 46 46 197 197 197 197 197 197 340 291 291 291 291 215 57 57 57 57
 57 150 150 150 150 374 374 106 106 106 46 46 46 46 337 337 197 197 197 197
 197 395 395 395 395 395 57 57 57 57 57 150 150 150 374 374 374 374 106 106
 41 41 41 41 337 337 337 337 337 337 395 395 395 395 395 395 57 57 57 57
 240 354 354 354 374 374 374 374 374 41 41 41 41 41 337 337 337 337 337 231
 231 395 395 395 395 395 395 57 240 240 240 354 354 354 374 374 374 374 374 41
 41 41 41 41 337 337 337 337 337 231 231 231 231 395 395 395 395 240 240 240
 240 354 354 190 190 190 190 190 190 41 41 41 41 41 41 337 337 337 32 231
 231 231 231 176 176 176 176 240 240 240 240 306 190 190 190 190 190 190 42 42
 42 42 279 279 279 40 32 32 32 32 231 231 231 176 176 176 176 240 240 240
 306 306 190 190 190 190 190 190 42 42 42 279 279 279 279 279 77 77 77 231
 231 231 231 176 176 176 176 69 240 240 159 306 190 190 190 190 190 190 42 42
 42 279 279 279 279 279 77 77 77 77 77 77 231 231 176 176 69 69 69 69
 159 159 190 190 190 190 190 190 42 42 42 279 279 279 279 53 321 321 77 77
 77 77 77 77 77 34 69 69 69 71 159 159 159 190 190 190 190 190 190 42
 279 279 279 279 279 53 53 321 321 77 77 77 77 77 34 34 34 71 71 71
 159 159 159 190 190 190 190 190 349 349 349 389 389 279 53 53 321 321 321 77
 77 77 77 34 34 34 34 71 71 71 159 159 159 36 36 36 36 36 349 349
 349 389 389 389 53 53 53 321 321 77 77 77 34 34 34 34 34 34 71 71
 71 71 36 36 36 36 36 327 349 349 349 389 389 312 312 312 114 114 114 114
 114 34 34 34 34 34 34 71 71 71 125 125 125 36 36 36 36 327 327 349
 349 389 312 312 312 312 312 114 114 114 114 34 34 34 34 34 34 71 71 71
 125 125 125 36 36 36 36 327 327 359 359 144 312 312 312 312 312 114 114 114
 114 325 34 34 34 34 34 71 71 71 125 125 125 125 36 199 36 59 59 144
 144 144 144 312 312 312 75 75 114 180 180 355 355 355 355 355 182 182 125 125
 125 125 125 125 199 199 199 59 59 144 144 144 144 75 75 75 75 75 180 180
 180 355 355 355 355 182 182 182 182 182 216 216 216 199 199 199 199 59 59 144
 144 144 144 75 75 75 75 75 180 180 180 355 355 355 355 182 182 182 182 182
 216 216 216 216 199 199 199 59 59 144 144 144 144 75 75 75 75 75 180 180
 180 355 355 355 355 182 182 182 182 182 216 216 216 216 216 199 199 59 59 144
 144 44 44 44 75 75 75 75 180 180 180 355 355 355 182 182 182 182 182 182
 182 216 216 216 216 212 212 212 212 212 44 44 44 44 44 44 234 75 180 180
 180 142 355 355 182 182 182 182 182 182 182 216 216 216 212 212 212 212 212 256
 44 44 44 44 44 44 234 166 166 166 142 142 142 142 142 182 182 182 182 182
 182 136 136 212 212 212 212 212 256 256 256 44 44 44 44 44 166 166 166 166
 166 142 142 142 142 182 168 168 182 182 136 136 136 136 212 212 212 212 256 256
 256 44 44 44 44 44 166 166 166 166 166 142 142 142 142 168 168 168 168 182
 136 136 136 136 191 191 191 191 256 256 256 44 44 44 44 44 166 166 166 166
 278 278 142 142 142 168 168 168 168 168 136 136 136 136 191 191 191 191 191 191
 191 191 43 43 43 166 166 166 166 278 278 372 372 372 372 168 168 168 147 147
 136 136 136 136 191 191 191 191 191 191 191 191 43 43 43 166 166 166 166 166
 278 372 372 372 215 215 147 147 147 57 136 136 150 150 150 191 191 191 191 191
 191 46 46 46 43 197 197 197 166 340 340 372 291 291 215 215 215 147 57 57
 57 150 150 150 150 150 191 191 191 191 46 46 46 46 197 197 197 197 197 197
 340 291 291 291 291 215 57 57 57 57 57 150 150 150 150 150 201 201 191 191
 46 46 46 46 197 197 197 197 197 197 197 291 291 291 291 291 57 57 57 57
 57 150 150 150 150 150 374 201 106 46 46 46 46 46 337 337 337 197 197 197
 197 395 291 291 291 395 57 57 57 57 57 150 150 150 150 374 374 374 106 45
 45 45 45 337 337 337 337 337 337 337 337 395 395 395 395 395 57 57 57 57
 354 354 354 354 354 374 374 374 374 41 41 41 41 41 337 337 337 337 337 337
 231 231 395 395 395 395 395 336 336 336 354 354 354 354 354 374 374 190 41 41
 41 41 41 41 41 337 337 337 337 231 231 231 231 231 395 395 336 336 336 336
 354 354 354 354 190 190 190 190 190 41 41 41 41 41 40 40 337 337 32 32
 231 231 231 231 231 231 336 336 336 336 354 354 190 190 190 190 190 190 42 42
 42 42 279 279 279 40 40 32 32 32 231 231 231 231 231 176 176 336 336 336
 105 306 190 190 190 190 190 190 42 42 42 279 279 279 279 279 53 32 32 32
 231 231 231 231 231 231 69 69 336 336 105 190 190 190 190 190 190 190 42 42
 42 279 279 279 279 53 53 77 77 77 77 77 231 231 231 231 69 69 69 69
 159 159 190 190 190 190 190 190 42 42 42 279 279 279 53 53 53 77 77 77
 77 77 77 77 77 69 69 69 69 71 71 159 190 190 190 190 190 190 190 42
 279 279 279 279 53 53 53 77 77 77 77 77 77 77 34 34 34 71 71 71
 71 71 190 190 190 190 190 190 349 349 349 279 279 53 53 53 53 53 77 77
 77 77 77 34 34 34 34 71 71 71 71 71 159 36 36 36 36 36 349 349
 349 389 389 53 53 53 53 114 114 77 77 77 34 34 34 34 34 71 71 71
 71 71 71 327 327 327 327 327 349 349 349 349 155 155 312 114 114 114 114 83
 83 83 34 34 34 34 34 71 71 71 71 71 327 327 327 327 327 327 327 349
 349 349 312 312 312 312 114 114 114 114 83 83 34 34 34 34 34 71 71 71
 125 125 125 327 327 327 327 327 327 144 144 144 144 312 312 312 114 114 114 114
 83 355 355 355 34 34 34 71 71 71 125 125 125 327 327 327 327 327 327 144
 144 144 144 75 75 75 75 114 114 180 180 355 355 355 355 355 355 182 182 125
 125 125 125 125 199 199 199 59 59 144 144 144 144 75 75 75 75 180 180 180
 180 355 355 355 355 355 182 182 182 182 216 216 216 199 199 199 199 59 59 144
 144 144 144 75 75 75 75 180 180 180 180 355 355 355 355 355 182 182 182 182
 216 216 216 216 199 199 199 59 59 144 144 144 144 44 75 75 75 180 180 180
 180 355 355 355 355 182 182 182 182 182 216 216 216 216 216 199 199 59 212 144
 44 44 44 44 44 75 75 180 180 180 180 355 355 355 355 182 182 182 182 182
 182 216 216 216 212 212 212 212 212 212 44 44 44 44 44 44 75 180 180 180
 180 355 355 355 182 182 182 182 182 182 182 182 216 216 212 212 212 212 212 256
 44 44 44 44 44 44 44 166 166 166 166 142 142 142 142 182 182 182 182 182
 182 13 13 13 212 212 212 212 212 256 256 44 44 44 44 44 166 166 166 166
 166 142 142 142 142 182 182 182 182 182 13 136 13 13 212 212 212 212 256 256
 256 44 44 44 44 44 166 166 166 166 166 142 142 142 142 168 168 168 168 182
 136 136 136 136 191 191 191 191 256 256 256 44 44 44 44 166 166 166 166 166
 278 278 142 142 142 168 168 168 168 168 136 136 136 136 191 191 191 191 191 191
 191 191 44 44 44 166 166 166 166 166 278 278 372 372 338 338 168 168 168 178
 136 136 136 150 191 191 191 191 191 191 191 191 46 46 43 166 166 166 166 166
 278 278 372 338 338 338 338 147 178 178 178 136 150 150 150 191 191 191 191 191
 191 46 46 46 46 137 137 166 166 166 278 278 291 338 338 338 338 338 178 178
 57 150 150 150 150 201 201 201 191 191 46 46 46 46 46 197 197 197 197 197
 197 291 291 291 338 338 338 57 57 57 57 150 150 150 150 201 201 201 201 46
 46 46 46 46 46 197 197 197 197 197 197 291 291 291 291 338 338 57 57 57
 57 150 150 150 150 201 201 201 201 46 46 46 46 46 337 337 337 337 197 197
 197 291 291 291 291 291 242 57 57 57 354 150 150 150 150 374 201 201 201 45
 45 45 45 45 337 337 337 337 337 337 337 231 395 395 395 395 242 242 57 57
 354 354 354 354 354 374 374 374 45 45 45 45 45 45 337 337 337 337 337 337
 231 231 231 231 395 331 336 336 336 336 354 354 354 354 354 354 190 190 41 41
 41 41 41 41 40 337 198 198 198 231 231 231 231 231 231 331 336 336 336 336
 354 354 354 354 190 190 190 190 190 41 41 41 41 41 40 40 198 198 32 231
 231 231 231 231 231 331 336 336 336 336 354 354 354 190 190 190 190 190 42 42
 42 42 279 40 40 40 40 198 32 32 231 231 231 231 231 231 336 336 336 336
 105 105 190 190 190 190 190 190 42 42 42 42 279 279 40 40 40 77 77 77
 231 231 231 231 231 69 69 69 69 336 105 105 105 190 190 190 190 190 42 42
 42 279 279 279 53 53 53 77 77 77 77 77 231 231 231 69 69 69 69 69
 105 105 190 190 190 190 190 190 190 42 42 279 279 279 53 53 53 53 77 77
 77 77 77 77 77 69 69 69 69 71 71 71 190 190 190 190 190 190 190 42
 279 279 279 53 53 53 53 53 77 77 77 77 77 77 34 34 69 71 71 71
 71 71 190 190 190 190 190 190 349 349 349 279 279 53 53 53 53 53 77 77
 77 77 77 34 34 34 34 71 71 71 71 71 71 190 327 327 327 327 349 349
 349 349 155 155 53 53 114 114 114 83 83 83 34 34 34 34 34 71 71 71
 71 71 71 327 327 327 327 327 327 86 86 155 155 155 155 114 114 114 114 83
 83 83 83 34 34 34 71 71 71 71 71 71 71 327 327 327 327 327 327 86
 86 90 90 90 90 114 114 114 114 83 83 83 83 34 34 34 34 71 71 71
 71 71 125 327 327 327 327 327 327 327 144 144 90 90 312 114 114 114 114 114
 83 83 355 257 257 34 34 71 71 71 125 125 125 327 327 327 327 327 327 144
 144 144 144 75 75 75 114 114 114 180 180 355 355 355 355 355 355 182 71 71
 125 125 313 313 313 327 327 327 87 144 144 144 144 75 75 92 92 180 180 180
 180 355 355 355 355 355 182 182 182 182 216 216 313 313 313 199 199 66 66 144
 144 144 144 92 92 92 92 180 180 180 180 355 355 355 355 355 182 182 182 182
 216 216 216 313 313 199 66 66 66 144 144 144 44 44 92 92 92 180 180 180
 180 355 355 355 355 355 182 182 182 182 182 216 216 313 313 66 66 66 66 66
 44 44 44 44 44 92 92 180 180 180 180 355 355 355 355 182 182 182 182 182
 182 216 216 313 212 212 212 66 66 370 44 44 44 44 44 96 96 96 180 180
 180 355 355 355 355 182 182 182 182 182 13 13 13 13 212 212 212 212 212 370
 370 44 44 44 44 96 96 166 166 166 166 412 167 167 167 182 182 182 182 182
 13 13 13 13 212 212 212 212 212 256 44 44 44 44 44 44 96 166 166 166
 166 412 412 167 167 182 182 182 182 182 13 13 13 13 13 212 212 212 212 256
 256 44 44 44 44 44 166 166 166 166 166 412 412 412 167 168 168 168 168 13
 13 13 13 13 13 191 191 191 256 256 256 44 44 44 44 166 166 166 166 166
 166 412 412 412 338 168 168 168 168 13 178 13 13 13 191 191 191 191 191 191
 191 323 323 44 44 166 166 166 166 166 166 399 399 338 338 338 338 168 178 178
 178 178 13 150 191 191 191 191 191 191 191 323 46 46 137 137 137 137 166 166
 399 399 399 338 338 338 338 178 178 178 178 178 150 150 150 191 191 191 191 191
 46 46 46 46 137 137 137 137 166 166 399 399 338 338 338 338 338 338 178 178
 178 150 150 150 150 201 201 201 201 46 46 46 46 46 46 197 197 197 197 197
 399 399 291 338 338 338 338 338 178 178 196 150 150 150 150 201 201 201 201 46
 46 46 46 46 46 197 197 197 197 197 316 316 291 338 338 338 338 242 57 57
 196 196 196 196 196 201 201 201 201 46 46 46 46 46 46 337 337 337 197 197
 316 316 291 291 291 242 242 242 242 57 196 196 196 196 196 196 201 201 201 45
 45 45 45 45 337 337 337 337 337 337 316 316 316 331 331 331 242 242 242 336
 354 354 354 196 196 196 201 201 45 45 45 45 45 45 45 337 337 198 198 198
 231 231 231 331 331 331 331 336 336 336 354 354 354 354 196 107 107 190 239 45
 45 45 45 45 40 337 198 198 198 231 231 231 231 331 331 331 331 336 336 336
 336 354 354 354 107 107 107 190 239 239 239 41 41 40 40 40 198 198 198 231
 231 231 231 331 331 331 331 336 336 336 336 354 354 190 190 107 107 190 239 239
 239 42 279 40 40 40 40 223 223 231 231 231 231 231 231 331 336 336 336 336
 105 105 105 190 190 190 190 190 42 42 42 42 279 279 40 40 40 223 77 77
 231 231 231 231 231 69 69 69 69 69 105 105 105 190 190 190 190 190 190 42
 42 279 279 279 53 53 53 53 77 77 77 77 231 231 69 69 69 69 69 69
 105 105 105 190 190 190 190 190 190 42 42 279 279 53 53 53 53 53 77 77
 77 77 77 77 362 362 69 69 69 71 71 71 190 190 190 190 190 190 190 117
 117 117 53 53 53 53 53 53 77 77 77 77 77 362 362 362 362 71 71 71
 71 71 71 127 127 190 190 190 86 86 349 117 155 155 53 53 53 53 77 83
 83 77 77 34 362 362 71 71 71 71 71 71 71 127 327 327 327 327 86 86
 86 86 155 155 155 53 53 114 114 83 83 83 34 34 34 34 71 71 71 261
 71 71 71 327 327 327 327 327 86 86 86 86 90 90 90 114 114 114 83 83
 83 83 83 34 34 34 71 71 71 71 71 71 71 327 327 327 327 327 327 86
 86 90 90 90 90 114 114 114 114 83 83 83 257 257 257 257 71 71 71 71
 71 71 327 327 327 327 327 327 327 86 86 90 90 90 90 114 114 114 114 114
 83 203 257 257 257 257 257 71 71 71 71 313 313 313 327 327 327 327 327 87
 87 90 90 92 92 92 92 114 180 180 180 203 257 257 257 257 257 71 71 71
 313 313 313 313 313 327 327 327 87 87 87 144 144 92 92 92 92 92 180 180
 180 355 355 355 355 355 355 182 182 182 313 313 313 313 313 313 66 66 87 87
 87 144 144 92 92 92 92 92 180 180 180 3 355 355 355 355 355 182 182 182
 313 313 313 313 313 313 66 66 66 87 87 44 44 92 92 92 92 92 180 180
 180 3 355 355 355 355 182 182 182 182 182 313 313 313 313 313 66 66 66 66
 44 44 44 44 92 92 92 92 180 180 180 355 355 355 355 355 182 182 182 182
 241 241 241 313 313 66 66 66 66 370 370 44 44 44 96 96 96 96 180 180
 180 355 167 167 167 182 182 182 182 182 13 241 13 13 13 212 66 66 66 370
 370 44 44 44 96 96 96 96 166 166 412 412 167 167 167 182 182 182 182 182
 13 13 13 13 13 212 212 212 212 370 370 44 44 44 44 96 96 166 166 166
 412 412 412 167 167 167 182 182 182 13 13 13 13 13 13 212 212 212 195 256
 370 44 44 44 44 96 166 166 166 166 412 412 412 412 167 167 111 111 13 13
 13 13 13 13 13 195 195 195 195 195 323 323 323 44 44 166 166 166 166 166
 399 412 412 412 412 338 111 111 13 13 178 13 13 13 13 195 195 195 195 195
 323 323 323 323 44 137 137 166 166 166 399 399 412 412 338 338 338 178 178 178
 178 178 13 13 191 191 195 195 195 191 323 323 323 323 137 137 137 137 166 166
 399 399 399 338 338 338 338 178 178 178 178 178 196 196 269 269 191 191 191 191
 46 46 46 46 137 137 137 137 137 399 399 399 399 338 338 338 338 178 178 178
 178 196 196 196 196 269 201 201 201 46 46 46 46 116 116 137 137 137 137 399
 316 316 316 338 338 338 338 338 178 178 196 196 196 196 196 201 201 201 201 46
 46 46 46 116 116 137 197 197 197 316 316 316 316 316 338 338 242 242 242 178
 196 196 196 196 196 201 201 201 201 46 46 46 46 116 116 337 337 337 197 316
 316 316 316 316 242 242 242 242 242 242 196 196 196 196 196 196 201 201 201 45
 45 45 45 45 116 337 337 337 337 316 316 316 316 331 331 331 242 242 242 242
 196 196 196 196 196 196 196 201 45 45 45 45 45 21 21 337 337 198 198 198
 316 316 331 331 331 331 331 242 242 336 354 354 196 196 196 107 107 107 239 239
 45 45 45 21 21 21 223 198 223 223 231 231 331 331 331 331 331 336 336 336
 336 354 354 107 107 107 107 107 239 239 239 45 21 21 21 40 223 223 223 223
 231 231 231 331 331 331 331 336 336 336 105 354 354 107 107 107 107 107 239 239
 239 239 21 21 40 40 223 223 223 223 231 231 231 231 99 99 99 336 336 336
 105 105 105 107 107 107 107 107 239 239 239 239 39 21 40 40 223 223 223 223
 231 231 231 231 99 99 69 69 69 336 105 105 105 190 190 190 190 190 190 239
 239 117 279 53 53 53 53 53 77 77 77 236 231 362 362 362 69 69 69 7
 7 105 105 127 127 190 190 190 190 117 117 117 117 53 53 53 53 53 77 77
 77 77 77 362 362 362 362 69 7 7 7 71 127 127 127 127 190 190 117 117
 117 117 117 53 53 53 53 53 77 77 77 77 77 362 362 362 362 71 7 7
 71 71 127 127 127 127 190 86 86 86 117 117 117 53 53 53 53 53 83 83
 83 83 83 362 362 362 362 71 71 71 71 71 71 127 127 327 327 327 86 86
 86 86 155 155 53 53 53 114 83 83 83 83 83 362 362 362 71 71 71 71
 71 71 71 127 327 327 327 327 86 86 86 86 90 90 90 114 114 14 83 83
 83 83 83 257 257 257 71 71 71 71 71 71 71 327 327 327 327 327 86 86
 86 90 90 90 90 114 14 14 14 83 83 83 257 257 257 257 71 71 71 71
 71 71 327 327 327 327 327 327 327 86 86 90 90 90 90 92 14 14 14 14
 203 203 257 257 257 257 257 71 71 71 71 313 313 313 327 327 327 327 327 87
 87 90 90 92 92 92 92 14 14 14 203 203 257 257 257 257 257 71 71 71
 313 313 313 313 313 309 309 309 87 87 87 87 92 92 92 92 92 92 180 3
 3 3 257 257 109 109 109 182 182 148 313 313 313 313 313 309 309 66 87 87
 87 87 92 92 92 92 92 92 180 3 3 3 109 109 109 109 355 182 182 182
 313 313 313 313 313 309 66 66 66 87 87 44 44 92 92 92 92 92 180 3
 3 3 109 109 109 109 182 182 182 182 241 313 313 313 313 66 66 66 66 66
 44 44 44 92 92 96 96 96 180 3 3 3 109 109 355 355 182 182 182 182
 241 241 241 313 313 66 66 66 66 370 370 44 44 44 96 96 96 96 405 405
 3 3 167 167 167 167 111 111 111 13 241 241 241 13 13 49 49 49 49 370
 370 44 44 44 96 96 96 96 405 405 412 412 167 167 167 167 111 111 111 13
 13 13 13 13 13 49 49 49 49 370 370 44 44 44 96 96 96 96 166 412
 412 412 412 167 167 167 111 111 111 13 13 13 13 13 13 49 49 49 49 49
 88 88 44 44 96 96 96 166 166 412 412 412 412 412 167 111 111 111 111 13
 13 13 13 13 13 195 195 195 195 195 323 323 323 88 96 96 166 166 166 399
 399 412 412 412 412 245 111 111 111 13 13 13 13 13 13 195 195 195 195 195
 323 323 323 323 323 137 137 166 166 399 399 399 412 412 245 245 245 178 178 178
 178 392 392 13 269 195 195 195 195 195 323 323 323 323 137 137 137 137 166 399
 399 399 399 399 338 338 338 178 178 178 392 392 392 392 269 269 269 269 195 195
 323 323 323 116 137 137 137 137 137 399 399 399 399 338 338 338 338 178 178 178
 392 392 196 196 269 269 269 269 269 46 46 46 116 116 116 137 137 137 137 316
 316 316 316 338 338 338 338 242 392 392 392 196 196 196 196 269 269 269 201 46
 46 46 116 116 116 116 137 137 316 316 316 316 316 293 293 293 242 242 242 392
 196 196 196 196 196 196 201 201 201 221 93 93 116 116 116 116 337 337 316 316
 316 316 316 316 293 242 242 242 242 392 196 196 196 196 196 196 201 201 221 221
 93 45 45 45 116 116 223 223 316 316 316 316 316 331 331 94 242 242 242 242
 196 196 196 196 196 196 196 196 221 221 45 45 45 21 21 21 223 223 223 223
 316 316 331 331 331 331 94 242 242 242 20 196 196 196 196 107 107 319 239 239
 45 45 21 21 21 21 223 223 223 223 223 331 331 331 331 331 94 94 20 20
 20 196 354 107 107 107 107 319 239 239 239 239 21 21 21 223 223 223 223 223
 231 231 331 331 331 99 94 94 20 20 20 20 107 107 107 107 107 107 239 239
 239 239 21 21 21 223 223 223 223 223 236 236 236 331 99 99 99 94 20 20
 105 105 107 107 107 107 107 107 239 239 239 239 39 39 39 223 223 223 223 223
 236 236 236 236 99 99 99 69 69 20 7 7 105 107 107 107 107 107 239 239
 239 117 39 39 39 53 53 51 51 236 236 236 236 236 362 362 362 69 7 7
 7 7 127 127 127 127 190 190 117 117 117 117 117 39 214 214 53 53 53 236
 236 236 236 362 362 362 362 362 7 7 7 7 127 127 127 127 127 190 117 117
 117 117 117 117 214 214 214 53 53 236 236 236 236 362 362 362 362 362 7 7
 71 71 127 127 127 127 127 86 86 86 86 117 117 53 53 214 214 53 83 83
 83 83 236 362 362 362 362 71 7 7 71 71 127 127 127 127 327 86 86 86
 86 86 155 53 53 53 53 53 83 83 83 83 83 362 362 362 362 71 71 71
 71 366 366 127 127 327 4 4 4 86 86 86 90 90 90 90 14 14 14 121
 121 83 187 257 257 257 71 71 71 71 71 366 366 366 327 327 4 4 4 86
 86 90 90 90 90 14 14 14 14 14 14 83 257 257 257 257 71 71 71 71
 366 366 366 366 327 327 4 4 4 4 86 90 90 90 90 14 14 14 14 14
 14 203 257 257 257 257 257 71 71 71 313 313 313 313 309 309 309 309 4 87
 87 90 90 92 92 92 14 14 14 14 3 203 257 257 257 257 257 257 71 148
 313 313 313 313 309 309 309 309 87 87 87 87 92 92 92 92 92 92 14 3
 3 3 109 257 109 109 109 109 148 148 313 313 313 313 309 309 309 66 87 87
 87 87 92 92 92 92 92 92 3 3 3 3 3 109 109 109 109 148 148 148
 313 313 313 313 309 309 309 66 66 87 87 87 92 92 92 92 92 92 3 3
 3 3 3 109 109 109 109 148 148 148 281 313 313 313 309 309 66 66 66 66
 87 44 44 92 92 96 96 96 3 3 3 3 3 109 109 109 111 111 111 111
 281 281 281 313 309 49 66 66 66 370 370 44 44 96 96 96 96 96 405 405
 405 3 167 167 167 111 111 111 111 111 281 281 281 13 49 49 49 49 49 370
 88 88 88 96 96 96 96 96 405 405 405 412 167 167 167 111 111 111 111 111
 13 13 13 13 13 49 49 49 49 49 88 88 88 88 96 96 96 96 405 405
 412 412 412 167 167 111 111 111 111 111 13 13 13 13 13 49 49 49 49 49
 88 88 88 88 96 96 96 96 399 399 412 412 412 412 351 351 111 111 111 13
 13 13 13 13 13 49 49 195 195 195 323 88 88 88 74 74 74 166 399 399
 399 412 412 412 245 245 245 111 111 13 392 13 13 13 13 195 195 195 195 195
 323 323 323 88 74 74 74 166 399 399 399 399 412 245 245 245 245 111 392 392
 392 392 392 392 269 269 195 195 195 195 323 323 323 88 74 74 137 137 399 399
 399 399 399 399 245 245 245 245 392 392 392 392 392 392 269 269 269 269 269 269
 323 323 323 116 74 137 137 137 137 399 399 399 399 293 293 293 293 392 392 392
 392 392 392 269 269 269 269 269 269 269 46 46 116 116 116 137 137 137 137 316
 316 316 316 293 293 293 293 293 392 392 392 392 196 196 269 269 269 269 269 221
 93 93 116 116 116 116 252 252 316 316 316 316 316 293 293 293 293 293 392 392
 392 196 196 196 196 269 269 269 221 221 93 93 93 116 116 116 252 252 316 316
 316 316 316 293 293 293 293 242 242 392 392 196 196 196 196 196 269 221 221 221
 93 93 93 116 116 116 252 5 5 5 316 316 316 94 94 94 94 242 242 392
 196 196 196 196 196 202 202 221 221 221 221 93 93 21 21 21 223 223 223 5
 5 316 94 94 94 94 94 94 242 20 20 196 196 196 202 202 202 319 239 239
 239 93 21 21 21 21 223 223 223 223 223 94 94 94 94 94 94 94 20 20
 20 20 196 107 107 107 319 319 239 239 239 239 21 21 21 223 223 223 223 223
 223 94 94 94 94 94 94 94 20 20 20 20 107 107 107 107 107 319 239 239
 239 239 39 21 21 223 223 223 223 223 236 236 236 94 99 99 94 94 20 20
 175 175 175 107 107 107 107 107 239 239 239 39 39 39 39 39 223 51 223 236
 236 236 236 236 99 99 99 94 20 20 175 175 175 107 107 107 107 107 239 239
 239 39 39 39 39 39 51 51 51 236 236 236 236 236 362 362 362 362 7 7
 7 175 175 127 127 127 107 107 117 117 117 117 39 39 39 214 51 51 51 236
 236 236 236 236 362 362 362 362 7 7 7 7 127 127 127 127 127 86 86 86
 117 117 117 39 214 214 214 53 51 236 236 236 236 236 362 362 362 362 7 7
 7 71 127 127 127 127 127 86 86 86 86 117 117 53 214 214 214 53 121 121
 236 236 236 236 362 362 362 362 7 7 71 71 127 127 127 127 327 86 86 86
 86 86 117 53 53 53 53 121 121 121 121 83 236 362 362 362 362 71 71 71
 258 366 366 366 127 327 4 4 4 4 86 86 90 90 90 14 14 14 14 121
 121 187 187 187 187 187 55 258 258 258 366 366 366 366 317 317 4 4 4 4
 4 90 90 90 90 14 14 14 14 14 14 14 187 257 257 55 55 55 71 258
 366 366 366 366 317 317 4 4 4 4 4 90 90 90 90 14 14 14 14 14
 14 203 257 257 257 257 55 55 55 55 366 366 366 366 317 317 317 4 4 224
 224 90 90 92 92 92 14 14 14 14 3 3 257 257 257 257 55 55 55 148
 148 313 313 309 309 309 309 309 224 224 224 224 92 92 92 92 92 14 14 3
 3 3 3 257 257 109 109 148 148 148 148 313 313 309 309 309 309 309 224 224
 224 224 92 92 92 92 92 160 3 3 3 3 3 109 109 109 109 148 148 148
 148 148 313 309 309 309 309 66 66 224 224 224 344 344 344 92 92 92 3 3
 3 3 3 109 109 109 111 148 148 148 148 281 313 309 309 309 66 66 66 66
 224 44 344 344 344 344 96 96 405 405 3 3 3 109 109 111 111 111 111 111
 281 281 281 50 50 50 50 66 66 66 88 44 44 344 344 96 96 96 405 405
 405 405 167 167 167 111 111 111 111 111 281 153 281 50 50 50 49 49 49 24
 88 88 88 88 96 96 96 405 405 405 405 405 167 167 167 111 111 111 111 111
 281 281 281 50 50 49 49 49 49 24 88 88 88 88 88 96 96 96 405 405
 405 405 412 351 351 351 111 111 111 111 13 13 13 13 50 49 49 49 49 24
 88 88 88 88 88 96 96 405 405 405 399 412 412 351 351 351 111 111 111 111
 13 13 13 13 50 49 49 27 27 24 88 88 88 88 74 74 74 74 399 399
 399 399 412 351 245 245 245 111 111 111 392 392 392 392 50 49 27 27 27 24
 88 88 88 88 74 74 74 74 399 399 399 399 399 245 245 245 245 111 392 392
 392 392 392 392 269 269 269 27 27 27 323 323 194 194 74 74 74 137 399 399
 399 399 399 245 245 245 245 392 392 392 392 392 392 392 269 269 269 269 269 269
 194 194 194 194 194 74 74 137 399 399 399 399 399 293 293 293 293 392 392 392
 392 392 392 392 269 269 269 269 269 269 194 194 194 396 194 194 252 252 353 399
 316 316 293 293 293 293 293 293 392 392 392 392 392 196 269 269 269 269 269 221
 194 194 396 396 396 194 252 252 252 316 316 316 316 293 293 293 293 293 392 392
 392 392 196 196 196 269 269 269 221 221 93 93 194 396 194 194 252 252 252 5
 316 316 316 293 293 293 293 293 392 392 392 196 196 196 196 202 202 221 221 221
 221 93 194 194 194 194 252 252 5 5 5 316 316 94 94 94 94 94 94 207
 20 196 196 196 202 202 202 202 221 221 221 93 194 194 194 252 252 252 252 5
 5 316 23 94 94 94 94 94 94 207 20 20 196 202 202 202 202 202 221 221
 221 380 380 380 380 380 223 223 223 205 205 23 23 94 94 94 94 94 94 20
 20 20 196 202 202 202 202 319 319 239 239 380 380 380 380 380 223 223 223 205
 205 205 23 94 94 94 94 94 20 20 20 20 175 107 107 107 107 319 239 239
 239 380 380 380 380 380 223 223 205 205 205 236 236 94 94 94 94 94 20 20
 175 175 175 107 107 107 107 107 239 239 239 39 39 39 39 39 51 51 51 205
 236 236 236 236 94 94 94 94 20 20 175 175 175 175 107 107 107 107 393 393
 393 39 39 39 39 39 51 51 51 236 236 236 236 236 236 362 362 362 7 7
 175 175 175 127 127 107 72 72 393 393 117 39 39 39 39 39 51 51 51 236
 236 236 236 236 236 362 362 362 7 7 7 7 127 127 127 127 72 149 149 86
 117 117 39 39 39 214 214 51 51 236 236 236 236 236 362 362 362 362 7 7
 258 258 127 127 127 127 72 149 149 86 86 117 117 39 214 214 214 121 121 121
 121 236 236 187 187 362 362 362 258 258 258 258 127 127 127 127 4 4 86 86
 86 86 117 39 53 53 53 121 121 121 121 187 187 187 187 362 362 258 258 258
 258 366 366 366 366 317 4 4 4 4 265 265 265 90 90 14 14 14 14 121
 121 187 187 187 187 187 55 258 258 258 366 366 366 366 317 317 4 4 4 4
 265 265 265 90 390 390 14 14 14 14 14 187 187 187 187 55 55 55 55 258
 366 366 366 366 317 317 317 4 4 4 4 265 265 390 390 390 14 14 14 14
 14 14 257 257 55 55 55 55 55 55 148 366 366 317 317 317 317 317 4 224
 224 224 78 390 390 390 390 14 14 14 1 3 257 257 55 55 55 55 55 55
 148 148 313 309 317 317 317 317 224 224 224 224 78 92 390 390 160 160 160 1
 1 3 3 257 257 55 55 148 148 148 148 148 313 309 309 309 309 309 224 224
 224 224 224 344 344 344 160 160 160 3 3 3 3 109 378 378 148 148 148 148
 148 148 148 309 309 309 309 309 224 224 224 224 344 344 344 344 160 160 160 3
 3 3 3 378 378 378 148 148 148 148 148 148 50 50 50 50 50 50 66 224
 224 344 344 344 344 344 160 160 405 405 3 3 378 378 378 111 111 111 111 148
 281 281 281 50 50 50 50 50 50 24 88 143 143 143 344 344 96 248 405 405
 405 405 378 378 378 111 111 111 111 111 281 281 281 50 50 50 50 50 50 24
 88 88 88 143 143 96 248 248 405 405 405 405 407 351 351 351 111 111 111 111
 111 281 281 50 50 50 50 49 24 24 88 88 88 88 88 96 248 248 405 405
 405 405 351 351 351 351 111 111 111 111 111 13 13 50 50 50 49 49 24 24
 24 88 88 88 88 96 74 248 405 405 399 412 351 351 351 351 351 111 111 111
 392 392 392 50 50 50 49 27 24 24 88 88 88 88 88 74 74 74 399 399
 399 399 351 351 351 351 351 111 111 111 392 392 392 392 50 50 27 27 27 24
 88 88 88 88 74 74 74 74 399 399 399 399 399 351 245 245 245 351 392 392
 392 392 392 392 269 269 364 364 364 24 88 194 194 194 74 74 74 74 353 353
 353 399 399 245 245 245 245 392 392 392 392 392 392 392 269 269 269 364 364 364
 194 194 194 194 194 194 74 353 353 353 353 399 399 293 293 293 293 392 392 392
 392 392 392 392 269 269 269 364 364 364 194 194 194 194 194 194 194 353 353 353
 353 353 293 293 293 293 293 392 392 392 392 392 392 392 269 269 269 269 364 221
 194 194 194 194 194 194 252 252 252 252 316 316 293 293 293 293 293 293 392 392
 392 392 392 392 61 61 269 269 221 221 221 194 194 194 194 194 252 252 252 252
 316 316 316 293 293 293 293 293 207 392 207 207 196 196 61 61 61 221 221 221