# vtk DataFile Version 2.0
Data set from IO Version 6.4.197.9a0dee2
ASCII

DATASET RECTILINEAR_GRID
DIMENSIONS 31 31 31
X_COORDINATES 31 float
-5.850000 5.850000 17.549999 29.249998 40.950001 52.650002 64.349998 76.050003 87.750000 99.449997 111.150002 122.849998 134.549988 146.249985 157.949997 169.649994 181.349991 193.049988 204.749985 216.449997 228.149994 
239.849991 251.549988 263.250000 274.949982 286.649994 298.349976 310.049988 321.750000 333.449982 345.149994 
Y_COORDINATES 31 float
-5.850000 5.850000 17.549999 29.249998 40.950001 52.650002 64.349998 76.050003 87.750000 99.449997 111.150002 122.849998 134.549988 146.249985 157.949997 169.649994 181.349991 193.049988 204.749985 216.449997 228.149994 
239.849991 251.549988 263.250000 274.949982 286.649994 298.349976 310.049988 321.750000 333.449982 345.149994 
Z_COORDINATES 31 float
-5.850000 5.850000 17.549999 29.249998 40.950001 52.650002 64.349998 76.050003 87.750000 99.449997 111.150002 122.849998 134.549988 146.249985 157.949997 169.649994 181.349991 193.049988 204.749985 216.449997 228.149994 
239.849991 251.549988 263.250000 274.949982 286.649994 298.349976 310.049988 321.750000 333.449982 345.149994 
CELL_DATA 27000
SCALARS FeatureIds int 1
LOOKUP_TABLE default
 36 36 36 36 36 36 36 36 36 94 94 94 94 94 94 94 94 267 267 267
 267 82 82 82 82 86 86 86 322 322 322 36 36 136 36 36 36 36 36 94
 94 94 94 94 94 94 94 267 267 267 267 267 267 82 38 38 221 221 221 322
 153 153 136 136 136 36 70 70 64 64 94 94 94 94 94 94 94 267 267 267
 267 267 267 38 38 38 221 221 221 221 153 153 153 136 136 36 70 70 64 64
 64 94 94 94 94 94 372 372 372 267 267 267 267 38 38 38 221 221 221 221
 153 153 153 153 136 36 70 64 64 64 94 94 94 94 94 372 372 372 372 372
 267 267 267 38 38 38 221 221 221 221 381 153 153 153 25 25 25 64 64 12
 12 12 94 94 94 372 372 372 372 372 372 267 47 38 38 38 221 221 221 381
 381 381 381 213 93 93 93 12 12 12 12 12 12 181 181 372 372 372 372 372
 47 47 47 47 38 38 381 381 381 381 381 381 381 93 93 93 33 33 12 12
 12 12 181 181 181 181 372 372 372 372 47 47 47 47 47 381 381 381 381 381
 381 381 381 93 93 93 33 33 33 33 301 301 301 181 181 181 181 360 360 360
 47 47 47 47 381 381 381 381 381 381 381 381 381 93 93 93 33 33 33 33
 301 301 301 181 181 181 181 360 360 360 47 47 47 47 381 381 381 381 381 381
 381 381 381 93 93 93 33 33 33 33 301 301 180 180 180 181 360 360 360 360
 100 100 150 119 119 119 381 381 381 381 381 381 266 266 266 266 266 33 33 33
 301 180 180 180 180 180 360 100 100 100 100 100 100 119 119 119 119 381 381 381
 381 381 266 266 266 266 266 266 35 35 301 180 180 180 180 180 100 100 100 100
 100 100 100 39 39 39 39 39 381 381 127 127 266 266 266 266 266 266 35 35
 158 158 158 180 180 180 100 100 100 100 320 320 320 320 39 39 39 39 39 127
 127 127 127 266 266 266 266 266 35 83 158 158 158 167 167 320 320 320 320 320
 320 320 320 320 39 39 39 39 39 127 127 127 127 266 266 266 266 146 146 83
 146 158 167 167 167 320 320 320 320 320 320 320 320 320 39 39 39 342 342 127
 127 127 127 266 266 266 266 146 146 146 146 146 167 167 167 320 320 320 320 320
 320 320 320 320 257 39 61 61 376 376 376 376 376 20 20 20 20 146 146 146
 146 146 167 167 84 211 211 320 320 320 320 320 257 257 257 138 61 61 376 376
 376 376 332 332 338 20 146 146 146 146 146 146 84 84 84 211 211 211 211 320
 320 257 257 257 257 138 138 138 376 376 376 332 332 332 338 338 338 146 146 146
 146 146 84 84 84 211 211 211 211 211 380 380 257 257 257 138 138 169 169 169
 332 332 332 332 338 338 338 146 146 146 146 84 84 84 84 211 211 211 211 211
 380 380 380 380 257 138 169 169 169 169 332 332 332 332 338 338 338 338 316 316
 316 84 84 84 330 330 211 211 211 68 380 380 380 380 380 169 169 169 169 169
 332 332 332 332 332 338 160 160 316 316 316 316 84 330 330 330 330 211 68 68
 358 7 7 7 7 169 169 169 169 169 332 332 332 332 332 160 160 160 316 316
 316 316 67 330 330 330 330 68 68 68 358 358 7 7 7 169 169 169 169 169
 130 246 332 332 345 345 345 345 345 316 67 67 67 67 67 184 184 184 184 68
 358 358 7 7 7 123 123 123 123 123 130 246 246 345 345 345 345 345 345 67
 67 67 67 67 67 184 184 184 184 68 358 358 7 143 143 143 123 123 123 130
 246 246 246 163 163 345 345 345 345 67 67 67 67 67 67 184 184 184 184 184
 358 358 143 143 143 143 123 123 130 130 246 246 246 36 163 163 345 345 345 345
 67 67 67 67 335 184 184 184 184 184 82 82 143 143 143 143 143 130 130 130
 130 246 246 36 36 36 36 36 345 345 67 67 67 335 335 335 335 335 184 82
 82 82 82 143 143 143 143 130 130 130 130 246 36 36 36 36 36 36 36 36
 67 67 67 335 335 335 335 335 82 82 82 82 82 82 143 143 130 130 130 130
 322 36 36 36 36 36 36 36 36 94 94 94 94 94 94 335 335 335 82 82
 82 82 82 82 82 86 86 86 322 322 322 36 36 36 36 36 70 70 70 94
 94 94 94 94 94 94 94 94 267 267 82 82 82 82 38 38 38 38 322 322
 153 153 153 36 36 70 70 70 64 64 94 94 94 94 94 94 94 372 372 372
 267 267 267 38 38 38 38 38 221 322 153 153 153 153 36 70 70 70 64 64
 94 94 94 94 94 94 372 372 372 372 372 267 38 38 38 38 38 38 221 221
 153 153 153 153 25 70 70 70 64 64 94 94 94 94 94 372 372 372 372 372
 372 267 38 38 38 38 38 38 221 381 153 153 153 153 25 25 25 25 64 12
 12 94 94 94 94 372 372 372 372 372 372 372 38 38 38 38 38 38 381 381
 381 153 153 213 93 93 93 33 12 12 12 12 181 112 181 372 372 372 372 372
 372 47 47 38 38 38 38 381 381 381 381 381 381 93 93 93 93 33 33 12
 12 12 181 112 181 181 372 372 372 372 47 47 47 47 38 381 381 381 381 381
 381 381 93 93 93 93 33 33 33 33 301 301 301 181 181 181 181 360 360 360
 47 47 47 47 381 381 381 381 381 381 381 381 381 93 93 93 33 33 33 33
 301 301 301 181 181 181 360 360 360 360 150 150 150 150 381 381 381 381 381 381
 381 381 381 93 93 93 33 33 33 33 301 301 301 181 181 181 360 360 360 360
 150 150 150 150 119 381 381 381 381 381 381 381 381 266 266 266 266 33 33 33
 301 301 180 180 180 180 360 360 360 100 150 150 150 150 119 119 381 381 381 381
 381 381 266 266 266 266 266 266 35 33 301 301 180 180 180 180 100 100 100 100
 320 150 150 150 39 39 39 39 223 223 127 127 266 266 266 266 266 266 35 158
 158 158 158 180 180 180 320 320 320 320 320 320 320 320 39 39 39 39 223 223
 127 127 127 266 266 266 266 266 146 146 158 158 158 158 158 320 320 320 320 320
 320 320 320 320 39 39 39 39 223 223 127 127 127 266 266 266 266 146 146 146
 146 158 158 158 158 320 320 320 320 320 320 320 320 320 39 39 39 39 376 376
 376 127 127 266 266 106 106 146 146 146 146 146 167 167 167 320 320 320 320 320
 320 320 320 320 257 39 39 376 376 376 376 376 376 106 106 106 106 146 146 146
 146 146 146 167 84 211 211 320 320 320 320 320 257 257 257 138 138 376 376 376
 376 376 376 338 338 106 106 146 146 146 146 146 84 84 84 211 211 211 211 320
 320 257 257 257 257 138 138 138 376 376 376 376 332 338 338 338 338 146 146 146
 146 146 84 84 84 211 211 211 211 211 320 257 257 257 257 138 138 169 169 376
 376 332 332 338 338 338 338 146 146 146 146 146 84 84 84 211 211 211 211 211
 380 257 257 257 257 138 169 169 169 169 332 332 332 338 338 338 338 338 364 146
 364 364 84 84 330 211 211 211 211 68 68 7 7 7 7 169 169 169 169 169
 332 332 332 332 338 338 338 133 133 316 364 364 287 287 330 330 330 68 68 68
 68 7 7 7 7 169 169 169 169 169 246 332 332 332 332 133 133 133 133 133
 316 67 287 287 287 330 68 68 68 68 68 7 7 7 7 169 169 169 169 169
 246 246 246 332 345 345 345 345 345 316 67 67 67 287 287 184 68 68 68 68
 68 68 7 7 7 169 123 123 123 123 246 246 246 163 163 345 345 345 345 67
 67 67 67 67 67 184 184 184 68 68 68 68 143 143 143 143 123 123 123 123
 246 246 246 163 163 163 163 345 345 345 67 67 67 67 335 184 184 184 184 68
 68 68 143 143 143 143 123 123 123 246 246 246 246 163 163 163 163 163 345 345
 67 67 67 335 335 335 335 200 200 82 82 82 143 143 143 143 143 130 130 246
 246 246 246 36 36 36 36 36 36 36 67 67 335 335 335 335 335 335 200 82
 82 82 82 143 143 143 143 130 130 246 246 246 36 36 36 36 36 36 36 36
 36 67 335 335 335 335 335 335 82 82 82 82 82 82 86 86 86 130 130 322
 322 322 36 36 36 36 36 36 36 36 94 94 94 94 335 335 335 335 335 82
 82 82 82 82 86 86 86 86 322 322 322 322 36 36 36 70 70 70 70 94
 94 94 94 94 94 94 335 335 335 82 82 82 82 82 86 86 86 86 322 322
 322 153 153 36 36 70 70 70 70 94 94 94 94 94 94 94 94 372 372 372
 82 82 82 38 38 38 38 38 322 322 153 153 153 153 70 70 70 70 70 64
 94 94 94 94 94 94 372 372 372 372 372 372 38 38 38 38 38 38 38 322
 153 153 153 153 25 25 25 70 218 94 94 94 94 94 94 372 372 372 372 372
 372 372 38 38 38 38 38 38 38 381 153 153 153 153 25 25 25 25 218 218
 94 94 94 94 94 372 372 372 372 372 372 372 38 38 38 38 38 38 381 381
 381 153 153 213 25 25 25 25 218 218 12 12 181 112 181 372 372 372 372 372
 372 47 113 38 38 38 38 381 381 381 381 381 213 213 93 93 93 33 33 33
 12 12 181 181 181 181 372 372 372 372 372 47 47 47 38 381 381 381 381 381
 381 381 93 93 93 93 93 33 33 33 301 301 181 181 181 181 181 360 360 360
 360 150 150 150 381 381 381 381 381 381 381 381 227 93 93 93 93 33 33 33
 301 301 301 181 181 181 360 360 360 360 150 150 150 150 381 381 381 381 381 381
 381 381 227 93 93 93 93 33 33 33 301 301 301 181 181 181 360 360 360 360
 150 150 150 150 150 381 381 381 381 381 381 381 227 93 93 93 266 33 33 33
 301 367 367 367 367 367 367 360 360 150 150 150 150 150 150 381 381 381 381 381
 223 223 185 185 266 266 266 266 33 33 367 367 367 367 367 367 367 320 320 320
 150 150 150 150 150 39 39 223 223 223 223 223 223 266 266 266 266 266 266 158
 158 158 158 367 367 367 320 320 320 320 320 320 150 150 39 39 39 223 223 223
 223 223 266 266 266 266 266 266 266 146 229 158 158 158 367 320 320 320 320 320
 320 320 320 320 39 39 39 223 223 223 223 127 127 266 266 266 266 146 146 146
 146 229 158 158 367 320 320 320 320 320 320 320 320 320 39 39 39 223 223 223
 376 127 106 106 106 106 106 146 146 146 146 146 158 158 320 320 320 320 320 320
 320 320 320 320 257 138 39 376 376 376 376 376 106 106 106 106 106 146 146 146
 146 146 146 146 320 320 320 320 320 320 320 320 257 257 257 138 138 376 376 376
 376 376 106 106 106 106 106 146 146 146 146 146 146 84 211 211 211 211 211 320
 320 257 257 257 257 138 138 138 376 376 376 376 338 338 338 338 338 146 146 146
 146 146 55 84 211 211 211 211 211 211 320 257 257 257 257 138 138 169 169 376
 317 317 338 338 338 338 338 146 364 364 364 364 55 84 211 211 211 211 211 211
 211 257 257 257 257 138 169 169 169 169 317 317 332 338 338 338 338 133 364 364
 364 364 287 287 287 211 211 211 68 68 68 68 7 7 7 169 169 169 169 169
 317 317 332 338 338 338 133 133 133 364 364 364 287 287 287 287 68 68 68 68
 68 68 7 7 7 169 169 169 169 169 246 246 332 338 338 133 133 133 133 133
 364 287 287 287 287 287 68 68 68 68 68 68 7 7 7 169 169 169 169 169
 246 246 246 246 345 133 133 133 133 133 133 67 287 287 287 287 68 68 68 68
 68 68 7 7 7 123 123 123 123 123 246 246 246 246 163 163 163 133 345 133
 67 67 67 287 287 200 200 68 68 68 68 68 7 143 143 143 123 123 123 123
 246 246 246 163 163 163 163 163 345 345 67 67 67 335 335 200 200 200 200 68
 68 68 143 143 143 143 123 123 123 246 246 246 246 163 163 163 163 163 163 258
 258 258 258 335 335 335 200 200 200 82 82 82 82 143 143 143 143 123 322 246
 246 246 246 36 36 163 36 36 36 36 258 258 335 335 335 335 335 200 200 82
 82 82 82 82 143 86 86 86 322 322 322 246 246 36 36 36 36 36 36 36
 258 258 335 335 335 335 335 335 82 82 82 82 82 82 86 86 86 86 322 322
 322 176 176 176 36 36 36 36 36 36 94 94 94 117 335 335 335 335 335 82
 82 82 82 82 86 86 86 86 322 322 322 176 176 176 176 36 70 70 70 218
 94 94 94 94 94 335 335 335 335 82 82 82 82 82 86 86 86 86 322 322
 322 153 176 176 176 70 70 70 70 218 94 94 94 94 94 352 352 372 372 372
 82 82 82 82 38 38 86 86 322 322 153 153 153 153 25 70 70 70 218 218
 218 94 94 94 352 352 352 372 372 372 113 113 113 38 38 38 38 38 65 65
 153 153 153 153 25 25 25 218 218 218 218 94 94 94 352 352 372 372 372 372
 113 113 113 38 38 38 38 38 65 65 153 153 153 153 25 25 25 218 218 218
 218 94 94 94 94 372 372 372 372 372 113 113 113 38 38 38 38 38 381 381
 153 153 153 213 25 25 25 218 218 218 218 218 181 112 181 372 372 372 372 372
 113 113 113 113 38 38 38 381 381 381 381 381 213 213 213 93 93 218 218 218
 187 187 181 181 181 181 372 372 372 372 113 113 113 113 38 38 381 381 381 381
 381 381 227 213 93 93 93 33 33 33 187 187 187 181 181 181 181 360 360 360
 150 150 150 150 381 381 381 381 381 381 381 227 227 227 93 93 93 33 33 33
 187 187 187 367 181 181 360 360 360 360 150 150 150 150 381 381 381 381 381 381
 381 227 227 227 93 93 93 33 33 33 367 367 367 367 367 367 367 360 360 150
 150 150 150 150 150 381 381 381 381 381 223 223 185 185 93 93 93 33 33 271
 367 367 367 367 367 367 367 367 360 150 150 150 150 150 150 381 381 381 381 223
 223 223 185 185 185 266 266 266 271 271 367 367 367 367 367 367 367 367 320 150
 150 150 150 150 150 177 223 223 223 223 223 223 185 185 185 266 266 266 266 229
 367 367 367 367 367 367 367 320 320 320 320 150 150 150 177 39 39 223 223 223
 223 223 185 185 185 266 266 266 229 229 229 229 229 367 367 367 320 320 320 320
 320 320 320 177 177 39 39 223 223 223 223 223 185 185 185 106 106 106 146 229
 229 229 229 229 367 320 320 320 320 320 320 320 320 177 177 39 39 223 223 223
 365 365 106 106 106 106 106 106 146 146 229 229 229 229 229 320 320 320 320 320
 320 320 320 320 249 249 249 365 365 365 365 365 106 106 106 106 106 106 146 146
 146 229 229 229 52 52 320 320 320 320 320 320 257 257 257 138 249 365 365 365
 365 365 106 106 106 106 106 106 146 146 146 55 55 55 52 52 211 211 269 269
 269 269 257 257 257 138 138 169 365 365 365 317 222 222 222 222 222 146 146 146
 55 55 55 55 211 211 211 211 269 269 269 269 257 257 257 138 138 169 169 365
 317 317 317 222 222 222 222 222 364 364 364 55 55 55 55 211 211 211 269 269
 269 269 257 257 257 138 169 169 169 169 317 317 317 338 338 338 338 133 364 364
 364 55 55 287 287 287 68 68 68 68 68 68 132 132 132 169 169 169 169 169
 317 317 317 338 338 133 133 133 133 364 364 364 287 287 287 287 68 68 68 68
 68 68 132 132 132 132 169 169 169 169 311 311 317 333 333 133 133 133 133 133
 364 287 287 287 287 287 68 68 68 68 68 68 132 132 132 132 169 169 169 311
 311 311 246 333 333 333 133 133 133 133 133 287 287 287 287 287 68 68 68 68
 68 68 132 132 132 132 123 311 311 311 311 246 246 246 163 163 133 133 133 133
 162 258 287 287 287 200 200 200 68 68 68 212 132 132 132 132 123 311 311 311
 246 246 246 246 163 163 163 133 133 258 258 258 258 258 200 200 200 200 200 200
 212 212 212 143 143 143 123 311 311 311 246 246 246 102 102 163 163 163 163 258
 258 258 258 117 117 200 200 200 200 200 82 82 82 143 143 86 86 322 322 322
 322 246 246 102 102 102 36 36 36 258 258 258 258 117 335 335 335 200 200 82
 82 82 82 82 86 86 86 86 322 322 322 246 246 36 36 36 36 36 36 258
 258 258 117 117 335 335 335 335 200 82 82 82 82 82 86 86 86 86 322 322
 322 176 176 176 176 176 36 216 216 218 218 117 117 117 117 117 117 200 200 82
 82 82 82 82 101 101 101 101 322 322 322 176 176 176 176 176 216 216 216 218
 218 94 94 352 352 352 352 352 200 11 11 11 11 11 101 101 101 101 322 322
 322 176 176 176 176 176 216 216 216 218 218 94 94 352 352 352 352 352 352 11
 11 11 11 11 101 101 101 65 65 322 153 153 153 176 176 216 216 216 218 218
 218 218 94 352 352 352 352 352 372 372 113 113 113 113 38 38 65 65 65 65
 153 153 153 153 25 25 25 218 218 218 218 218 94 352 352 352 352 352 372 372
 113 113 113 113 38 38 65 65 65 65 153 153 153 153 25 25 25 218 218 218
 218 218 218 352 352 352 352 372 372 113 113 113 113 113 38 38 65 65 65 65
 153 153 153 213 134 25 134 218 218 218 218 218 218 319 319 319 319 372 372 113
 113 113 113 113 38 38 65 65 65 65 381 153 213 213 213 134 134 218 218 218
 218 187 187 319 319 319 319 372 372 113 113 113 113 113 310 310 381 381 381 381
 381 227 227 227 93 93 134 134 218 218 187 187 187 367 319 319 319 319 121 121
 121 113 150 150 310 310 381 381 381 381 381 227 227 227 93 93 93 33 33 187
 187 187 187 367 367 367 367 360 121 121 121 150 150 150 310 310 381 381 381 381
 381 227 227 227 93 93 93 271 271 271 271 367 367 367 367 367 367 367 108 108
 150 150 150 150 150 310 381 381 381 381 354 354 185 185 185 93 93 271 271 271
 271 367 367 367 367 367 367 367 108 108 150 150 150 150 150 177 126 354 354 354
 354 354 185 185 185 185 266 271 271 271 367 367 367 367 367 367 367 367 108 108
 150 150 150 150 177 177 126 354 354 354 354 354 185 185 185 185 266 266 271 229
 229 367 367 367 367 367 367 320 320 320 150 150 150 177 177 177 126 354 354 354
 354 354 185 185 185 328 328 328 229 229 229 229 229 367 367 367 320 320 320 320
 320 320 177 177 177 177 177 354 354 354 354 354 185 185 328 328 328 328 229 229
 229 229 229 229 367 367 320 320 320 320 320 320 177 177 177 177 249 354 354 354
 365 365 365 106 106 106 106 106 146 229 229 229 229 229 229 52 52 320 320 320
 320 320 320 249 249 249 249 365 365 365 365 365 365 106 106 106 106 106 146 229
 229 229 229 229 52 52 52 269 269 269 269 269 257 249 249 249 249 365 365 365
 365 365 365 222 222 222 222 222 146 55 55 55 55 55 52 52 52 269 269 269
 269 269 257 257 249 249 249 365 365 365 317 317 317 222 222 222 222 222 146 55
 55 55 55 55 52 52 52 269 269 269 269 269 257 257 249 249 249 169 365 365
 317 317 317 222 222 222 222 222 364 364 55 55 55 55 55 52 52 269 269 269
 269 269 132 132 80 80 80 169 169 365 317 317 317 222 222 222 222 222 364 364
 364 55 55 99 99 99 68 68 68 68 68 68 132 132 132 80 80 169 169 169
 317 317 317 333 333 333 133 133 133 364 364 55 99 99 99 99 87 87 68 68
 68 68 132 132 132 132 80 169 169 311 311 317 317 333 333 333 133 133 133 133
 162 99 99 99 99 99 87 87 68 68 68 68 132 132 132 132 80 169 311 311
 311 311 311 333 333 333 333 133 133 162 162 162 99 99 99 99 87 87 68 68
 68 212 132 132 132 132 132 311 311 311 311 311 311 333 333 333 333 133 133 162
 162 258 258 99 99 200 200 200 200 68 212 212 212 132 132 132 132 311 311 311
 311 311 246 102 102 102 102 37 37 258 258 258 258 258 200 200 200 200 200 200
 212 212 212 212 132 143 311 311 311 311 246 246 246 102 102 102 102 102 258 258
 258 258 258 117 117 200 200 200 200 200 212 212 212 212 101 101 101 311 322 322
 322 246 176 102 102 102 102 102 37 258 258 258 258 117 117 117 200 200 200 200
 82 82 82 82 101 101 101 101 322 322 322 176 176 176 102 102 102 102 37 258
 258 258 258 117 117 117 117 200 200 82 82 82 82 82 101 101 101 101 322 322
 313 176 176 176 176 176 176 216 216 216 216 165 117 117 117 117 117 200 200 11
 11 11 11 101 101 101 101 101 313 313 313 176 176 176 176 176 216 216 216 216
 216 165 165 352 352 352 352 352 200 11 11 11 11 11 101 101 101 101 313 313
 176 176 176 176 176 176 216 216 216 216 216 165 165 352 352 352 352 352 352 11
 11 11 11 11 101 101 101 65 65 65 65 153 176 176 176 216 216 216 216 218
 218 165 165 165 352 352 352 352 352 11 11 11 113 113 263 65 65 65 65 65
 65 153 153 134 134 134 216 216 218 218 218 218 165 165 352 352 352 352 372 113
 113 113 113 113 113 65 65 65 65 65 65 153 134 134 134 134 134 218 218 218
 218 218 165 165 352 352 352 352 372 113 113 113 113 113 113 65 65 65 65 65
 65 153 134 134 134 134 134 218 218 218 218 218 165 319 319 319 319 319 372 113
 113 113 113 113 113 65 65 65 65 65 65 134 134 134 134 134 134 134 218 218
 218 218 218 319 319 319 319 319 319 113 113 113 113 310 310 310 310 65 65 65
 286 134 134 134 134 134 134 134 134 218 187 187 367 367 319 319 319 319 121 121
 121 113 113 310 310 310 310 310 381 381 286 286 134 134 134 134 134 134 134 187
 187 187 367 367 367 367 367 367 121 121 121 150 150 310 310 310 310 310 381 381
 354 286 227 134 134 134 134 134 271 271 271 367 367 367 367 367 367 367 108 108
 108 150 150 310 310 310 310 310 381 354 354 354 185 185 185 185 134 271 271 271
 271 367 367 367 367 367 367 367 108 108 108 150 150 150 310 126 126 126 354 354
 354 354 185 185 185 185 185 271 271 271 271 367 367 367 367 367 367 367 108 108
 108 150 150 177 177 126 126 126 354 354 354 354 185 185 185 185 185 271 271 271
 367 367 367 367 367 367 367 367 355 355 355 150 177 177 177 177 126 354 354 354
 354 354 185 185 185 328 328 328 229 229 229 229 367 367 367 367 367 355 355 355
 355 355 177 177 177 177 177 354 354 354 354 354 185 185 328 328 328 328 328 229
 229 229 229 229 367 367 355 355 355 355 355 355 177 177 177 177 177 354 354 354
 365 365 365 185 328 328 328 328 229 229 229 229 229 229 52 52 52 355 355 355
 355 355 343 177 249 249 249 365 365 365 365 365 365 222 222 222 222 222 222 229
 229 229 229 229 52 52 52 269 269 269 269 269 269 249 249 249 249 365 365 365
 365 365 365 222 222 222 222 222 222 55 55 55 55 55 52 52 52 269 269 269
 269 269 269 249 249 249 249 365 365 365 365 317 317 222 222 222 222 222 222 55
 55 55 55 55 52 52 52 269 269 269 269 269 269 132 249 249 249 365 365 365
 317 317 317 222 222 222 222 222 364 55 55 55 55 55 55 379 379 269 269 269
 269 269 132 132 80 80 80 80 365 317 317 317 317 317 222 222 222 222 364 55
 55 55 55 99 99 379 87 87 269 269 269 132 132 132 80 80 80 80 317 317
 317 317 317 333 333 333 333 133 133 364 55 99 99 99 99 99 87 87 87 68
 68 132 132 132 132 80 80 80 311 317 311 317 317 333 333 279 333 133 133 162
 162 99 99 99 99 99 87 87 87 68 68 132 132 132 132 132 80 311 311 311
 311 311 317 333 333 333 333 333 162 162 162 162 99 99 99 99 87 87 87 68
 212 212 132 132 132 132 132 311 311 311 311 311 311 333 333 333 333 333 162 162
 162 258 258 99 99 200 200 200 200 212 85 212 212 132 132 132 132 311 311 311
 311 311 311 102 102 102 37 37 37 258 258 258 258 258 200 200 200 200 200 200
 85 212 212 212 132 132 311 311 311 311 311 311 102 102 102 102 102 37 37 258
 258 258 258 258 200 200 200 200 200 200 212 212 212 212 101 101 101 311 311 311
 313 176 176 102 102 102 102 37 37 258 258 258 258 117 117 117 200 200 200 200
 82 82 82 101 101 101 101 101 313 313 313 176 176 176 102 102 102 37 37 258
 258 258 258 117 117 117 117 200 200 200 82 82 82 101 101 101 101 101 313 313
 313 176 176 176 176 96 96 234 234 216 216 165 165 117 117 117 200 200 200 11
 11 11 235 235 235 101 101 101 313 313 313 176 176 176 176 96 96 216 216 216
 216 165 165 165 352 352 352 352 200 11 11 11 11 235 235 101 101 101 313 313
 313 176 176 176 176 96 216 216 216 216 216 165 165 165 352 352 352 352 352 11
 11 11 11 11 263 263 263 263 313 313 65 176 176 176 176 216 216 216 216 216
 218 165 165 165 352 352 352 352 352 11 11 11 113 113 263 263 263 65 65 65
 65 65 293 293 134 134 216 216 216 218 218 165 165 165 352 352 352 352 352 113
 113 113 113 113 263 263 65 65 65 65 65 65 293 293 134 134 134 202 218 218
 218 218 165 165 125 125 125 125 125 113 113 113 113 113 263 263 65 65 65 65
 65 65 293 134 134 134 134 134 218 218 218 218 165 125 125 125 125 125 113 113
 113 113 113 113 122 122 65 65 65 65 286 286 134 134 134 134 134 134 218 218
 218 218 218 319 319 319 319 319 191 191 191 113 113 310 310 122 382 382 382 65
 286 286 134 134 134 134 134 134 134 218 218 367 367 367 319 319 319 319 121 121
 191 191 191 310 310 310 310 382 382 286 286 286 286 134 134 134 134 134 134 218
 187 367 367 367 367 367 367 367 121 121 121 191 191 310 310 310 310 310 286 286
 286 286 286 134 134 134 134 134 271 271 271 367 367 367 367 367 367 367 108 108
 108 191 150 310 310 310 310 310 286 286 286 286 286 185 185 134 134 271 271 271
 271 367 367 367 367 367 367 367 108 108 108 150 150 310 310 126 126 126 354 354
 354 354 185 185 185 185 185 271 271 271 271 367 367 367 367 367 367 367 108 108
 108 150 177 177 177 126 126 126 354 354 354 354 185 185 185 185 328 271 271 19
 19 367 367 367 367 367 367 355 355 355 355 355 177 177 177 177 126 126 354 354
 354 354 185 185 328 328 328 328 19 19 19 19 19 367 367 367 355 355 355 355
 355 355 177 177 177 177 177 354 354 354 248 248 248 185 328 328 328 328 19 19
 19 19 19 19 367 367 355 355 355 355 355 355 177 177 177 177 177 248 248 248
 248 248 336 336 328 328 328 328 19 19 19 19 19 19 19 52 355 355 355 355
 355 355 343 343 249 249 249 248 248 248 365 365 336 336 336 222 222 222 54 55
 55 55 19 19 52 52 52 269 269 269 269 269 343 343 249 249 249 365 365 365
 365 365 336 336 222 222 222 222 222 55 55 55 55 55 52 52 52 269 269 269
 269 269 343 343 249 249 249 365 365 365 365 317 336 222 222 222 222 222 222 55
 55 55 55 55 379 379 379 269 269 269 269 269 111 343 249 249 249 365 365 365
 317 317 317 222 222 222 222 222 222 55 55 55 55 55 379 379 379 379 269 269
 269 111 111 132 80 80 23 23 23 317 317 317 317 317 222 222 222 222 222 55
 55 55 55 99 99 379 379 379 269 269 111 111 132 132 132 80 23 23 23 317
 317 317 317 333 333 333 333 333 162 162 162 55 99 99 99 379 87 87 87 68
 111 132 132 132 132 80 23 23 23 23 317 317 317 333 333 333 333 333 162 162
 162 162 99 99 99 99 87 87 87 68 212 132 132 132 132 132 23 23 311 311
 311 311 311 333 333 333 333 333 162 162 162 162 99 99 99 99 87 87 87 212
 212 212 132 132 132 132 164 311 311 311 311 311 311 59 333 333 37 37 37 162
 162 162 99 99 99 200 200 200 200 200 212 212 212 132 132 164 164 311 311 311
 311 311 311 102 102 102 37 37 37 37 258 258 258 258 200 200 200 200 200 200
 212 212 212 212 132 164 164 311 311 311 313 313 102 102 102 102 37 37 37 37
 258 258 258 258 200 200 200 200 200 200 200 212 212 235 101 101 101 313 313 313
 313 313 176 102 102 102 37 37 37 37 258 258 258 117 117 200 200 200 200 200
 200 235 235 235 101 101 101 313 313 313 313 176 176 176 102 102 234 234 234 37
 258 258 258 117 117 117 200 200 200 200 200 235 235 235 101 101 101 101 313 313
 313 176 176 176 96 96 96 234 234 234 209 165 165 165 117 117 200 200 200 11
 11 235 235 235 235 235 101 313 313 313 313 176 176 176 96 96 96 216 216 216
 209 165 165 165 165 352 352 200 200 11 11 11 235 235 235 263 263 263 313 313
 313 176 176 176 96 96 96 216 216 216 209 165 165 165 165 352 352 352 352 11
 11 11 11 263 263 263 263 263 263 313 65 176 176 176 96 96 216 216 216 209
 209 165 165 165 165 352 352 352 352 113 113 11 290 263 263 263 263 263 65 65
 65 65 293 293 293 134 134 202 216 209 209 165 165 165 165 125 125 125 125 113
 113 113 113 263 263 263 263 65 65 65 65 65 293 293 293 134 202 202 202 218
 218 218 165 165 125 125 125 125 125 113 113 113 113 263 263 263 263 65 65 65
 65 65 293 293 134 134 134 202 202 218 218 218 165 125 125 125 125 125 191 191
 191 191 191 263 122 122 382 382 65 65 286 286 134 134 134 134 134 134 134 218
 218 218 218 125 125 125 125 125 191 191 191 191 191 310 122 122 382 382 382 286
 286 286 286 134 134 134 134 134 134 218 218 367 367 367 367 367 319 191 191 191
 191 191 191 310 310 310 310 382 382 286 286 286 286 134 134 134 134 134 75 75
 75 367 367 367 367 367 367 191 191 191 191 191 191 310 310 310 310 310 286 286
 286 286 286 134 134 134 134 75 75 75 75 367 367 367 367 367 367 367 191 191
 191 191 326 310 310 310 310 310 286 286 286 286 286 134 134 134 134 75 75 75
 75 367 367 367 367 367 367 367 284 284 284 326 326 326 310 310 310 310 286 286
 210 210 210 185 185 134 75 75 75 75 75 367 367 367 367 367 367 367 108 284
 108 326 326 326 326 126 126 17 17 354 210 210 210 210 185 185 171 75 75 75
 19 19 367 367 367 367 367 355 355 355 355 355 177 177 177 177 17 17 17 354
 248 210 210 210 328 328 328 171 75 19 19 19 19 19 367 367 76 355 355 355
 355 355 177 177 177 177 17 17 248 248 248 248 210 336 328 328 328 328 19 19
 19 19 19 19 367 76 76 355 355 355 355 355 343 343 343 343 17 248 248 248
 248 248 336 336 336 336 328 54 54 19 19 19 19 19 19 76 76 76 355 355
 355 355 343 343 343 343 343 248 248 248 248 248 336 336 336 336 222 54 54 54
 19 19 19 19 28 76 76 76 355 355 355 343 343 343 343 343 343 248 248 248
 248 336 336 336 336 336 222 222 54 55 55 55 55 55 379 379 379 379 269 269
 269 343 343 343 343 343 343 248 248 248 248 336 336 336 336 222 222 222 222 55
 55 55 55 55 379 379 379 379 269 269 269 111 111 343 343 343 23 248 248 365
 317 317 336 336 222 222 222 222 4 55 55 55 55 55 379 379 379 379 269 269
 111 111 111 111 111 80 23 23 23 23 317 317 317 242 222 222 222 4 4 4
 55 55 55 99 379 379 379 379 111 111 111 111 111 111 132 132 23 23 23 23
 317 317 317 242 333 333 333 4 4 162 162 4 99 99 99 379 87 87 111 111
 111 111 111 132 132 132 23 23 23 23 59 59 59 59 333 333 333 333 162 162
 162 162 99 99 99 99 87 87 87 111 111 111 132 132 132 132 23 23 23 311
 59 59 59 59 333 333 333 37 162 162 162 162 99 99 99 99 87 87 87 212
 212 212 132 132 132 164 164 164 311 311 59 59 59 59 59 37 37 37 37 162
 162 162 99 99 99 200 200 200 200 200 212 212 212 132 164 164 164 164 311 311
 59 59 59 59 102 37 37 37 37 37 258 258 258 258 200 200 200 200 200 200
 63 63 212 212 164 164 164 164 311 311 313 59 59 59 102 37 37 37 37 37
 258 258 258 258 200 200 200 200 200 200 63 63 235 235 235 164 164 164 313 313
 313 313 176 348 102 102 37 37 37 37 258 258 258 117 117 200 200 200 200 200
 200 235 235 235 235 101 101 313 313 313 313 313 176 176 348 102 234 234 234 37
 37 258 258 117 117 200 200 200 200 200 200 235 235 235 235 101 101 313 313 313
 313 313 348 348 348 96 96 234 234 209 209 165 165 98 98 98 98 200 200 11
 11 235 235 235 235 235 101 313 313 313 313 313 176 176 96 96 96 216 209 209
 209 165 165 165 165 98 98 200 384 11 11 290 290 235 263 263 263 263 313 313
 313 318 176 176 96 96 96 216 209 209 209 165 165 165 165 165 352 352 384 384
 290 290 290 290 263 263 263 263 263 313 318 217 217 217 217 217 216 216 209 209
 209 165 165 165 165 165 125 125 125 384 290 290 290 290 263 263 263 263 263 65
 65 217 217 217 217 217 134 202 209 209 209 165 165 165 165 125 125 125 125 191
 290 290 290 263 263 263 263 263 65 65 65 217 217 293 217 134 134 202 202 209
 209 165 165 165 125 125 125 125 191 191 191 191 290 263 263 263 263 263 65 65
 65 217 217 293 134 134 134 134 134 145 145 145 361 361 125 125 125 125 191 191
 191 191 191 191 263 122 263 382 382 65 286 286 134 134 134 134 134 134 134 145
 145 145 361 361 125 125 125 191 191 191 191 191 191 191 122 122 382 382 382 286
 286 286 286 134 134 134 134 134 134 145 145 145 367 367 367 125 125 191 191 191
 191 191 191 191 310 310 310 382 286 286 286 286 286 134 134 134 134 134 75 75
 75 75 367 367 367 367 367 191 191 191 191 191 191 310 310 310 310 310 286 286
 286 286 286 286 134 134 134 75 75 75 75 75 367 367 367 367 367 284 284 284
 191 191 326 326 310 310 310 310 286 286 286 286 286 286 134 134 75 75 75 75