# vtk DataFile Version 2.0
Data set from IO Version 6.4.197.9a0dee2
ASCII

DATASET RECTILINEAR_GRID
DIMENSIONS 31 31 31
X_COORDINATES 31 float
-5.850000 5.850000 17.549999 29.249998 40.950001 52.650002 64.349998 76.050003 87.750000 99.449997 111.150002 122.849998 134.549988 146.249985 157.949997 169.649994 181.349991 193.049988 204.749985 216.449997 228.149994 
239.849991 251.549988 263.250000 274.949982 286.649994 298.349976 310.049988 321.750000 333.449982 345.149994 
Y_COORDINATES 31 float
-5.850000 5.850000 17.549999 29.249998 40.950001 52.650002 64.349998 76.050003 87.750000 99.449997 111.150002 122.849998 134.549988 146.249985 157.949997 169.649994 181.349991 193.049988 204.749985 216.449997 228.149994 
239.849991 251.549988 263.250000 274.949982 286.649994 298.349976 310.049988 321.750000 333.449982 345.149994 
Z_COORDINATES 31 float
-5.850000 5.850000 17.549999 29.249998 40.950001 52.650002 64.349998 76.050003 87.750000 99.449997 111.150002 122.849998 134.549988 146.249985 157.949997 169.649994 181.349991 193.049988 204.749985 216.449997 228.149994 
239.849991 251.549988 263.250000 274.949982 286.649994 298.349976 310.049988 321.750000 333.449982 345.149994 
CELL_DATA 27000
SCALARS FeatureIds int 1
LOOKUP_TABLE default
 343 184 184 184 184 196 196 196 196 39 39 39 39 39 211 211 211 211 180 180
 180 180 180 203 203 203 203 203 203 203 343 184 184 184 196 196 196 196 196 280
 39 39 39 211 211 211 211 211 211 180 180 180 203 203 203 203 203 203 203 203
 113 184 184 196 196 196 196 196 196 280 39 39 39 211 211 211 211 211 211 18
 18 18 18 203 203 203 203 203 203 203 113 70 70 70 70 196 196 196 196 29
 29 29 29 211 211 211 211 211 18 18 18 18 18 203 203 178 203 203 203 203
 70 70 70 70 70 70 196 196 29 29 29 29 29 324 89 89 89 89 89 18
 18 18 18 279 279 178 178 203 203 203 70 70 70 70 70 70 70 70 186 29
 29 234 234 324 89 89 89 89 89 18 18 18 279 279 279 279 375 375 375 375
 70 70 70 70 70 136 136 136 136 234 234 234 234 234 89 89 89 89 89 89
 18 18 279 279 279 279 375 375 375 375 70 70 70 70 136 136 136 136 136 234
 234 234 234 234 381 381 89 89 89 89 334 334 334 279 242 242 242 242 242 269
 70 70 70 70 136 136 136 136 136 234 234 234 234 170 170 381 381 381 381 381
 334 334 334 334 242 242 242 242 242 269 269 269 265 265 136 136 136 136 136 234
 234 234 234 170 170 170 381 381 381 381 334 334 334 334 242 242 242 242 242 269
 269 269 265 265 323 260 260 260 260 335 335 335 170 170 170 170 381 381 381 381
 334 334 334 334 242 266 266 266 269 269 269 269 269 260 260 260 260 260 260 335
 335 335 335 170 170 170 170 381 381 381 334 334 334 266 266 266 266 266 269 269
 269 269 260 260 260 260 260 260 260 335 335 335 335 335 170 170 170 381 381 381
 334 334 334 266 266 266 266 266 269 269 369 123 123 260 260 260 260 260 260 335
 335 335 335 335 361 361 361 361 361 361 57 57 57 266 266 266 266 369 369 369
 123 123 123 123 260 260 260 260 379 335 335 335 335 361 361 361 361 361 361 361
 57 57 57 57 266 246 246 246 369 369 123 123 123 123 260 260 260 379 379 379
 284 335 335 361 361 361 361 361 361 361 57 57 57 57 246 246 246 246 246 263
 123 123 27 27 383 383 383 383 379 379 284 284 284 361 361 361 361 361 80 80
 57 57 57 57 246 246 246 246 246 263 95 123 123 27 383 383 383 322 322 322
 284 284 284 361 361 361 361 80 80 80 57 57 57 57 246 246 246 246 246 95
 95 95 123 292 292 383 322 322 322 322 322 284 284 361 361 361 80 80 80 80
 57 57 57 246 246 246 246 246 95 95 95 95 292 292 292 292 322 322 322 322
 322 322 386 361 361 361 80 80 80 13 13 13 223 223 223 246 246 95 95 95
 95 95 292 292 292 292 292 322 322 322 322 322 386 386 386 361 80 13 13 13
 13 13 223 223 223 223 223 95 95 95 95 292 292 292 292 292 292 322 322 322
 322 288 386 386 254 254 254 13 13 13 13 13 223 223 223 223 223 95 95 95
 95 370 370 370 292 292 292 322 100 51 288 288 288 254 254 254 254 13 13 13
 13 13 223 223 223 223 223 28 28 28 370 370 370 370 370 292 292 51 51 51
 288 288 288 254 254 254 254 79 13 13 13 223 223 223 223 132 132 28 28 28
 111 111 370 370 370 292 292 51 51 51 51 288 384 384 384 254 79 79 79 79
 13 223 223 223 223 132 132 28 28 28 111 111 164 164 164 112 112 51 51 51
 51 51 384 384 384 384 79 79 79 79 79 223 223 223 223 223 25 25 25 25
 343 111 164 164 164 112 112 112 51 51 51 51 384 384 384 99 79 79 79 79
 79 223 223 223 276 276 276 25 25 25 343 343 184 184 112 112 112 112 51 51
 51 51 384 384 99 99 99 79 79 79 180 226 226 223 276 276 276 25 25 25
 343 343 184 184 184 112 112 112 112 39 39 39 39 39 99 99 99 79 79 180
 180 180 226 203 276 276 276 25 25 343 343 184 184 184 184 196 112 112 39 39
 39 39 39 39 99 99 99 79 180 180 180 180 180 203 203 203 203 203 25 343
 343 184 184 184 196 196 196 196 280 280 280 280 39 39 211 211 211 211 180 180
 180 180 203 203 203 203 203 203 203 203 184 184 184 196 196 196 196 196 280 280
 280 280 39 211 211 211 211 211 180 180 180 180 203 203 203 203 203 203 203 203
 113 113 113 196 196 196 196 196 196 280 280 280 198 198 198 211 211 211 211 18
 18 18 203 203 203 203 203 203 203 203 113 113 113 70 196 196 196 196 196 190
 190 310 324 198 198 211 211 211 18 18 18 18 18 203 178 178 178 203 203 113
 113 113 70 70 70 70 196 196 186 186 29 310 324 324 324 89 89 89 89 18
 18 18 279 279 279 178 178 375 375 375 113 70 70 70 70 70 196 196 186 186
 186 310 324 324 324 89 89 89 89 18 18 18 279 279 279 279 375 375 375 375
 70 70 70 70 70 70 136 136 186 186 234 234 234 324 324 89 89 89 89 89
 18 18 279 279 279 279 375 375 375 375 70 70 70 70 70 136 136 136 136 234
 234 234 234 234 381 381 381 381 381 89 334 334 279 279 242 242 242 242 242 242
 70 70 265 265 265 136 136 136 136 234 234 234 234 170 170 381 381 381 381 381
 334 334 334 242 242 242 242 242 242 242 269 265 265 265 265 323 323 323 48 48
 48 48 170 170 170 170 381 381 381 381 334 334 334 242 242 242 242 242 242 269
 269 269 265 265 323 323 323 323 48 48 48 48 48 170 170 170 381 381 381 381
 334 334 334 242 242 242 242 242 269 269 269 269 269 323 323 323 323 323 335 335
 48 335 335 170 170 170 170 381 381 381 334 334 122 122 266 266 266 269 269 269
 269 269 269 323 323 323 323 260 335 335 335 335 335 335 170 170 170 381 381 381
 122 122 122 122 266 266 266 269 269 269 123 123 123 123 323 323 323 379 379 335
 335 335 335 335 361 361 361 361 361 361 122 122 122 122 266 266 246 246 369 369
 123 123 123 123 260 260 379 379 379 379 335 335 335 361 361 361 361 361 361 361
 57 57 57 57 266 246 246 246 246 369 123 123 123 27 27 260 379 379 379 379
 379 335 335 361 361 361 361 361 361 361 57 57 57 57 246 246 246 246 246 246
 123 123 27 27 383 383 383 379 379 379 379 379 361 361 361 361 361 361 361 361
 57 57 57 57 246 246 246 246 246 246 123 123 27 27 383 383 383 379 379 379
 379 379 361 361 361 361 361 361 361 361 57 57 57 246 246 246 246 246 246 246
 95 95 27 383 383 383 383 322 322 322 379 379 156 361 361 361 361 361 80 80
 78 78 78 246 246 246 246 246 246 95 95 95 292 292 292 292 322 322 322 322
 322 379 386 386 361 361 361 361 297 297 78 78 223 223 223 246 246 374 374 95
 95 95 292 292 292 292 292 322 322 322 322 386 386 386 386 386 361 297 297 13
 13 223 223 223 223 223 374 374 374 95 95 292 292 292 292 292 292 322 100 100
 100 100 386 386 386 254 79 13 13 13 13 223 223 223 223 223 223 374 95 95
 370 370 370 370 370 292 292 100 100 100 100 100 386 386 386 254 79 79 13 13
 13 223 223 223 223 223 223 28 28 28 370 370 370 370 370 270 270 100 100 100
 100 100 384 384 254 79 79 79 79 143 143 223 223 223 223 223 223 28 28 28
 111 111 370 370 370 270 270 100 100 100 100 100 384 384 384 79 79 79 79 79
 143 223 223 223 223 223 223 25 25 25 111 111 370 370 370 112 112 51 51 51
 51 51 384 384 384 384 79 79 79 79 72 223 223 223 223 223 25 25 25 25
 25 111 164 164 112 112 112 112 51 51 51 51 384 384 384 384 79 79 79 79
 72 72 223 223 223 223 25 25 25 25 25 184 184 184 112 112 112 112 280 280
 280 384 384 384 384 384 79 79 79 79 72 72 72 223 276 276 25 25 25 25
 343 184 184 184 112 112 112 112 280 280 280 39 39 384 99 99 99 79 79 180
 180 72 72 72 203 203 203 25 25 25 343 184 184 184 184 196 196 196 280 280
 280 39 39 39 99 99 99 79 180 180 180 180 72 203 203 203 203 203 25 343
 139 184 184 196 196 196 196 196 280 280 280 280 280 204 198 198 198 198 180 180
 180 180 203 203 203 203 203 203 203 203 113 113 196 196 196 196 196 196 280 280
 280 280 204 204 198 198 198 198 198 180 180 180 203 203 203 203 203 203 203 203
 113 113 113 196 196 196 196 196 196 280 280 280 198 198 198 198 198 198 198 400
 18 18 203 203 203 203 203 203 203 113 113 113 113 196 196 196 196 196 190 190
 190 310 324 198 198 198 198 198 400 18 18 18 18 203 203 178 203 203 203 113
 113 113 113 70 70 70 196 196 186 186 186 310 324 324 324 198 198 198 18 18
 18 18 279 279 279 178 375 375 375 375 113 113 70 70 70 70 196 196 186 186
 186 310 324 324 324 324 89 89 89 18 18 18 279 279 279 375 375 375 375 375
 364 70 70 70 70 70 70 186 186 186 310 310 324 324 324 381 381 381 381 18
 18 18 279 279 279 375 375 375 375 375 364 70 70 70 70 70 136 136 186 186
 310 310 324 324 324 381 381 381 381 381 18 267 267 267 267 242 242 375 375 375
 364 265 265 265 265 265 323 323 186 48 48 48 48 170 170 381 381 381 381 381
 334 334 267 267 242 242 242 242 242 269 265 265 265 265 265 323 323 323 48 48
 48 48 48 170 170 381 381 381 381 381 334 334 334 242 242 242 242 242 242 269
 269 265 265 265 265 323 323 323 48 48 48 48 48 170 170 170 381 381 381 381
 122 122 122 122 242 242 242 242 269 269 269 269 265 323 323 323 323 323 323 48
 48 48 48 170 170 170 170 381 381 381 122 122 122 122 122 242 242 269 269 269
 269 269 323 323 323 323 323 323 379 335 335 335 335 335 170 170 170 381 381 381
 122 122 122 122 122 266 242 269 269 269 123 123 123 323 323 323 323 379 379 379
 335 335 335 335 361 361 361 361 381 381 122 122 122 122 122 16 246 246 269 269
 123 123 123 123 243 243 379 379 379 379 379 335 335 361 361 361 361 361 361 38
 38 122 122 122 122 246 246 246 246 369 123 123 123 123 243 243 243 379 379 379
 379 379 335 361 361 361 361 361 361 38 38 38 142 142 246 246 246 246 246 200
 200 123 123 123 383 383 243 379 379 379 379 379 379 361 361 361 361 361 361 38
 38 38 142 142 246 246 246 246 246 200 200 200 200 200 383 383 383 379 379 379
 379 379 156 361 361 361 361 361 361 38 38 78 78 142 246 246 246 246 246 200
 200 200 200 383 383 383 383 322 379 379 379 156 156 361 361 361 361 361 81 78
 78 78 78 78 246 246 246 374 374 374 200 200 200 292 137 137 137 322 322 379
 379 156 386 386 386 361 361 81 297 297 78 78 78 78 374 374 374 374 374 374
 253 253 292 292 137 137 137 322 100 100 100 386 386 386 386 386 81 297 297 297
 297 78 78 223 223 374 374 374 374 374 253 253 370 292 270 270 270 100 100 100
 100 100 386 386 386 386 176 176 297 297 297 223 223 223 223 223 374 374 374 374
 370 370 370 370 270 270 270 100 100 100 100 100 386 386 386 386 79 143 143 143
 143 223 223 223 223 223 374 374 374 374 370 370 370 370 270 270 270 100 100 100
 100 100 386 386 386 79 79 79 143 143 143 223 223 223 223 223 223 25 25 25
 370 370 370 370 270 270 270 100 100 100 100 100 384 384 384 79 79 79 79 143
 143 223 223 223 223 223 223 25 25 25 25 370 370 370 270 270 270 112 100 100
 100 100 384 384 384 384 79 79 79 79 72 72 223 223 223 223 25 25 25 25
 25 25 164 112 112 112 112 112 280 280 280 384 384 384 384 384 79 79 79 79
 72 72 72 223 223 223 25 25 25 25 25 184 184 184 112 112 112 112 280 280
 280 280 384 384 384 384 79 79 79 72 72 72 72 72 223 219 25 25 25 25
 343 184 184 184 112 112 112 112 280 280 280 280 384 384 384 99 79 79 79 72
 72 72 72 72 203 203 203 25 25 25 184 184 184 196 196 196 196 196 280 280
 280 280 280 204 34 34 34 34 180 180 180 72 72 203 203 203 203 203 25 25
 139 139 196 196 196 196 196 196 280 280 280 280 204 204 204 198 198 198 180 180
 180 180 203 203 203 203 203 203 203 203 113 113 196 196 196 196 196 196 280 280
 280 280 204 204 198 198 198 198 198 400 180 3 203 203 203 203 203 203 203 113
 113 113 113 196 196 196 196 196 190 190 190 190 204 204 198 198 198 198 400 400
 400 18 203 203 203 203 203 203 203 113 113 113 113 196 196 196 196 196 190 190
 190 310 310 204 198 198 198 198 400 400 400 400 18 203 203 203 203 375 375 113
 113 113 113 70 70 196 196 196 186 186 310 310 310 324 324 198 198 198 400 400
 400 18 279 279 279 375 375 375 375 113 113 113 113 70 70 32 32 196 186 186
 186 310 324 324 324 324 324 239 239 239 239 18 279 279 279 375 375 375 375 375
 364 364 364 70 70 32 32 186 186 186 310 310 310 324 324 324 381 239 239 239
 239 267 267 267 267 119 375 375 375 375 364 364 364 265 265 215 215 215 186 310
 310 310 310 324 324 381 381 381 381 381 381 267 267 267 267 119 119 375 375 375
 364 364 265 265 265 215 215 215 215 310 310 310 145 170 381 381 381 381 381 381
 381 233 267 267 267 119 119 119 119 364 364 265 265 265 265 323 215 215 215 48
 48 48 48 170 170 381 381 381 381 381 381 233 233 233 242 242 242 242 242 269
 269 265 265 265 265 323 323 323 323 48 48 48 48 170 170 170 381 381 381 381
 122 122 122 122 122 242 242 16 269 269 269 265 265 265 323 323 323 323 323 48
 48 48 48 170 170 170 381 381 381 381 122 122 122 122 122 16 16 16 269 269
 269 189 265 323 323 323 323 402 379 379 48 48 48 335 170 170 170 381 381 381
 122 122 122 122 122 16 16 16 16 269 123 123 243 323 323 323 323 379 379 379
 379 335 335 335 361 361 361 361 381 38 122 122 122 122 122 16 16 16 181 181
 200 123 243 243 243 243 243 379 379 379 379 379 335 361 361 361 361 361 38 38
 38 122 142 142 142 16 16 16 181 181 200 200 200 243 243 243 243 379 379 379
 379 379 379 361 361 361 361 361 38 38 38 38 142 142 142 246 246 246 246 200
 200 200 200 243 243 367 243 379 379 379 379 379 156 361 361 361 361 361 38 38
 38 38 142 142 142 246 246 246 246 200 200 200 200 200 367 367 367 379 379 379
 379 156 156 156 361 361 361 361 38 38 38 38 78 142 246 246 246 374 374 200
 200 200 200 200 137 367 391 391 379 379 156 156 156 156 361 361 81 81 81 81
 78 78 78 78 374 374 374 374 374 200 200 200 200 200 137 9 137 391 296 296
 156 156 156 386 386 386 81 81 81 297 78 78 78 78 374 374 374 374 374 374
 253 253 253 137 137 9 137 137 100 296 156 386 386 386 386 386 81 81 297 297
 297 78 78 223 223 374 374 374 374 374 253 253 253 55 55 55 55 55 100 100
 100 386 386 386 386 386 176 176 176 297 297 297 223 223 223 374 374 374 374 374
 253 253 253 55 270 270 270 55 100 100 100 100 386 386 386 386 176 176 176 143
 143 223 223 223 223 223 374 374 374 374 253 370 370 270 270 270 270 100 100 100
 100 100 386 386 386 386 79 176 143 143 143 143 223 223 223 223 374 374 374 374
 238 238 55 55 270 270 270 55 100 100 100 100 384 384 384 79 79 79 143 143
 143 223 223 223 223 223 223 25 25 238 238 238 55 55 55 270 55 55 100 100
 100 100 384 384 384 384 79 79 79 143 72 72 72 223 223 2 2 25 25 238
 25 25 139 112 112 112 112 112 280 280 280 23 384 384 384 384 79 79 79 72
 72 72 72 72 223 2 25 25 25 25 139 139 139 112 112 112 112 280 280 280
 280 23 23 384 384 384 79 79 72 72 72 72 72 72 219 219 219 25 25 25
 139 139 139 196 196 196 196 280 280 280 280 280 23 23 34 34 34 34 72 72
 72 72 72 72 219 219 219 219 25 25 139 139 139 196 196 196 196 280 280 280
 280 280 204 204 34 34 34 34 72 72 72 72 72 72 219 219 219 219 219 139
 139 139 139 196 196 196 196 196 280 280 280 204 204 204 204 34 34 34 400 400
 3 3 3 3 219 219 219 219 219 139 139 139 139 196 196 196 196 196 190 190
 280 204 204 204 204 198 198 198 400 400 400 3 3 3 3 219 219 219 219 113
 113 113 113 196 196 196 196 196 190 190 190 204 204 204 204 198 198 198 400 400
 400 3 3 3 3 203 203 389 389 113 113 113 113 196 196 196 196 190 190 190
 190 310 310 204 204 198 198 400 400 400 400 400 3 3 3 389 389 389 389 113
 113 113 113 196 32 32 32 190 190 190 310 310 310 310 310 198 198 400 400 400
 400 400 3 279 389 389 389 389 389 389 364 364 364 32 32 32 32 190 186 186
 310 310 310 324 324 324 239 239 239 239 239 400 279 279 279 389 389 375 389 389
 364 364 364 364 32 32 32 32 186 310 310 310 310 324 324 324 239 239 239 239
 239 239 267 267 119 119 119 389 389 389 364 364 364 364 215 215 215 215 186 310
 310 310 310 310 324 381 381 239 239 239 239 233 267 267 119 119 119 119 119 364
 364 364 364 265 215 215 215 215 215 310 145 145 145 145 381 381 381 381 381 381
 233 233 233 233 119 119 119 119 119 364 364 364 265 265 215 215 215 215 215 145
 145 145 145 145 245 381 381 381 381 381 233 233 233 233 233 119 119 119 119 364
 189 189 265 265 215 323 323 215 215 48 145 145 145 245 245 245 245 381 381 381
 122 122 122 122 122 16 16 16 16 189 189 189 189 265 323 323 323 402 402 48
 48 48 48 245 245 245 245 381 381 381 122 122 122 122 122 16 16 16 16 269
 189 189 189 323 323 323 323 402 402 379 6 6 6 245 245 245 245 245 381 122
 122 122 122 122 122 16 16 16 16 16 189 189 243 243 243 243 402 402 402 379
 6 6 6 6 245 245 245 245 38 38 122 122 122 122 122 16 16 16 181 181
 200 243 243 243 243 243 243 402 379 379 379 6 6 361 361 361 361 361 38 38
 38 142 142 142 142 16 16 181 181 181 200 200 200 243 243 243 243 379 379 379
 379 379 156 156 361 361 30 30 38 38 38 142 142 142 142 142 16 181 181 200
 200 200 200 243 243 243 243 243 379 379 379 156 156 156 361 30 30 30 38 38
 38 142 142 142 142 142 374 374 200 200 200 200 200 200 243 367 391 391 379 156
 156 156 156 156 156 30 30 30 30 38 38 142 142 142 142 374 374 374 374 200
 200 200 200 200 137 391 391 391 296 296 156 156 156 156 193 81 81 81 81 81
 121 121 121 121 374 374 374 374 374 200 200 200 200 200 137 137 391 391 296 296
 296 156 156 386 193 81 81 81 81 81 121 121 121 121 374 374 374 374 374 374
 253 253 253 55 55 55 55 55 296 296 296 156 386 386 386 81 81 81 81 297
 121 121 121 121 374 374 374 374 374 374 253 253 253 55 55 55 55 55 100 100
 100 386 386 386 386 386 176 176 176 176 297 121 121 223 223 374 374 374 374 374
 253 253 253 55 55 55 55 55 100 100 100 41 386 386 386 104 176 176 176 143
 143 7 7 223 223 247 247 374 374 374 253 253 55 55 55 55 55 55 100 100
 100 41 41 386 104 104 104 176 143 143 143 7 7 223 223 247 247 247 374 238
 238 238 55 55 55 55 55 55 100 100 100 41 41 384 358 358 358 79 143 143
 143 7 7 223 2 2 2 247 238 238 238 238 55 55 55 55 55 55 100 100
 100 23 23 23 358 358 358 358 143 143 177 72 72 223 2 2 2 238 238 238
 238 238 55 55 55 55 55 280 280 280 23 23 23 23 358 358 358 79 177 177
 177 72 72 72 2 2 2 25 238 238 139 139 139 196 112 112 112 280 280 280
 23 23 23 23 34 34 34 34 177 177 72 72 72 72 219 219 219 219 25 139
 139 139 139 196 196 196 196 280 280 280 280 23 23 23 34 34 34 34 34 72
 72 72 72 219 219 219 219 219 219 139 139 139 139 196 196 196 196 196 280 280
 280 280 204 204 34 34 34 34 34 72 72 72 72 219 219 219 219 219 219 139
 139 139 139 139 196 196 196 196 280 280 280 204 204 204 204 34 34 34 34 3
 3 3 3 3 219 219 219 219 219 139 139 139 139 196 196 196 196 196 190 190
 190 204 204 204 204 204 34 34 400 400 3 3 3 3 3 219 219 219 219 139
 113 113 113 196 196 196 196 190 190 190 190 204 204 204 204 204 198 400 400 400
 400 3 3 3 3 3 389 389 389 389 113 113 113 196 196 196 196 190 190 190
 190 190 310 204 204 204 198 400 400 400 400 400 3 3 3 389 389 389 389 389
 252 252 252 32 32 32 32 190 190 190 190 310 310 310 310 387 387 387 400 400
 400 400 283 283 283 389 389 389 389 389 252 252 252 32 32 32 32 32 190 310
 310 310 310 310 310 387 387 239 239 239 239 283 283 283 283 389 389 389 389 389
 364 364 364 364 32 32 32 32 310 310 310 310 310 310 310 387 387 239 239 239
 239 283 283 283 119 119 119 389 389 389 364 364 364 364 215 215 215 215 310 310
 310 310 310 310 310 387 387 239 239 239 239 233 233 233 119 119 119 119 119 364
 364 364 364 215 215 215 215 215 215 145 145 145 145 145 245 103 103 239 239 239
 233 233 233 233 119 119 119 119 119 364 364 364 189 215 215 215 215 215 215 145
 145 145 145 145 245 103 103 103 381 233 233 233 233 233 233 119 119 119 119 364
 189 189 189 215 215 215 215 215 215 145 145 145 145 245 245 245 245 103 381 233
 233 233 233 233 233 16 16 16 16 189 189 189 189 189 215 323 323 402 402 402
 145 145 145 245 245 245 245 245 245 381 122 122 122 122 122 16 16 16 16 189
 189 189 189 189 243 323 402 402 402 402 6 6 6 245 245 245 245 245 245 302
 122 122 122 122 16 16 16 16 16 189 189 189 189 243 243 243 402 402 402 379
 6 6 6 6 245 245 245 245 302 302 302 122 142 142 16 16 16 16 181 181
 189 189 243 243 243 243 243 402 402 379 6 6 6 6 245 361 245 302 302 302
 302 142 142 142 142 16 16 16 181 181 200 200 243 243 243 243 243 243 379 379
 379 156 156 156 30 30 30 30 30 302 302 142 142 142 142 142 16 16 181 200
 200 200 200 243 243 243 243 243 379 156 156 156 156 156 30 30 30 30 30 38
 38 142 142 142 142 142 374 374 200 200 200 200 200 200 243 243 391 391 156 156
 156 156 156 156 193 30 30 30 30 302 38 121 142 142 142 374 374 374 374 200
 200 200 200 200 273 391 391 391 296 296 156 156 156 156 193 193 81 81 81 81
 121 121 121 121 142 374 374 374 374 200 200 200 200 273 273 273 391 391 296 296
 296 156 156 193 193 193 81 81 81 81 121 121 121 121 121 374 374 374 374 374
 253 253 253 253 273 273 273 273 296 296 296 156 31 31 193 193 81 81 81 81
 121 121 121 121 374 374 374 374 374 374 253 253 253 55 55 55 55 55 296 296
 296 41 31 31 31 193 81 176 176 176 7 7 7 7 247 247 374 374 374 374
 253 253 253 55 55 55 55 55 55 100 41 41 41 31 31 104 176 176 176 176
 7 7 7 7 7 247 247 247 374 253 253 253 55 138 55 55 55 55 100 100
 41 41 41 31 104 104 104 176 143 7 7 7 7 7 223 247 247 247 238 238
 238 238 55 55 55 55 55 55 100 100 41 41 41 358 358 358 358 358 143 7
 7 7 7 7 2 2 2 238 238 238 238 238 55 55 55 55 55 55 100 100
 23 23 23 358 358 358 358 358 339 339 177 7 7 7 2 2 2 238 238 238
 238 238 139 55 55 55 55 403 403 23 23 23 23 23 358 358 358 358 177 177
 177 177 177 177 2 2 2 238 238 238 139 139 139 139 55 55 403 403 403 23
 23 23 23 23 34 34 34 34 177 177 177 177 177 177 219 219 219 219 238 139
 139 139 139 139 196 196 196 403 403 280 23 23 23 23 34 34 34 34 34 177
 177 177 177 219 219 219 219 219 219 139 139 139 139 139 196 196 196 196 280 280
 280 23 204 204 34 34 34 34 34 177 177 177 3 219 219 219 219 219 219 139
 139 139 139 139 66 212 212 196 190 190 190 204 204 204 204 34 34 34 34 3
 3 3 3 3 3 219 219 219 342 342 342 139 139 196 212 212 212 196 190 190
 190 204 204 204 204 204 34 34 400 400 3 3 3 3 3 3 219 219 342 342
 342 113 113 196 212 212 212 190 190 190 190 204 204 204 204 204 198 400 400 400
 400 3 3 3 3 3 3 389 342 342 252 252 252 196 196 196 196 190 190 190
 190 190 310 204 204 204 387 387 400 400 400 400 3 3 3 3 389 389 389 389
 252 252 252 252 32 32 32 190 190 190 190 310 310 310 310 387 387 387 387 400
 400 283 283 283 283 208 389 389 389 389 252 252 252 252 32 32 32 190 190 310
 310 310 310 310 310 387 387 387 387 239 239 283 283 283 283 208 389 389 389 389
 252 252 252 252 32 32 32 32 310 310 310 310 310 310 310 387 387 387 239 239
 239 283 283 283 283 119 389 389 389 389 364 364 364 364 215 215 215 215 310 202
 202 310 310 310 310 387 387 387 239 239 239 283 283 283 119 119 119 119 389 364
 364 364 364 215 215 215 215 215 215 202 145 145 145 103 103 103 103 103 239 239
 233 233 233 233 119 119 119 119 182 182 189 189 189 215 215 215 215 215 215 145
 145 145 145 103 103 103 103 103 103 233 233 233 233 233 233 119 119 405 182 182
 189 189 189 189 215 215 215 215 215 145 145 145 145 103 103 103 103 103 103 233
 233 233 233 233 233 16 16 405 189 189 189 189 189 189 189 215 215 402 402 402
 145 145 145 103 103 245 245 103 103 227 227 227 233 233 16 16 16 16 189 189
 189 189 189 189 243 243 402 402 402 402 6 6 6 103 245 245 245 245 302 227
 227 227 45 45 45 16 16 16 16 189 189 189 189 243 243 243 402 402 402 379
 6 6 6 6 245 245 245 302 302 302 302 227 45 45 45 16 16 16 16 189
 189 189 243 243 243 243 243 402 402 379 6 6 6 6 245 30 302 302 302 302
 302 302 142 142 142 16 16 16 168 168 200 200 243 243 243 243 243 243 379 379
 156 156 156 156 30 30 30 30 302 302 302 302 142 142 142 142 168 168 168 200
 200 200 200 243 243 243 243 243 243 156 156 156 156 156 30 30 30 30 30 302
 302 302 142 142 142 142 168 168 168 200 200 200 200 200 243 243 243 243 156 156
 156 156 156 156 193 30 30 30 30 302 302 121 121 142 142 142 374 374 374 200
 200 200 200 273 273 273 273 273 296 296 156 156 156 193 193 193 193 81 81 81
 121 121 121 121 56 374 374 374 374 200 200 200 200 273 273 273 273 273 296 296
 296 156 156 193 193 193 193 81 81 81 121 121 121 121 121 374 374 374 374 374
 253 253 253 273 273 273 273 273 296 296 296 156 193 193 193 193 193 81 81 173
 121 121 121 121 374 374 374 374 374 374 253 253 253 55 55 55 55 55 55 296
 296 41 31 31 31 193 193 81 81 173 173 7 7 7 374 374 374 374 374 374
 253 253 253 55 55 55 55 55 55 100 41 41 41 31 31 104 104 176 176 7
 7 7 7 7 247 247 247 247 374 253 253 253 55 55 55 55 55 55 55 100
 41 41 41 31 104 104 104 176 143 7 7 7 7 7 247 247 247 247 247 238
 238 253 55 55 55 55 55 55 55 100 41 41 41 41 358 358 358 358 339 339
 7 7 7 7 2 2 2 247 238 238 238 238 55 55 55 55 55 55 55 23
 23 23 23 358 358 358 358 358 339 339 339 7 7 2 2 2 2 238 238 238
 238 238 55 55 55 55 55 403 403 23 23 23 23 23 358 358 358 358 339 339
 177 177 177 177 2 2 2 2 238 238 139 139 139 66 66 66 403 403 403 23
 23 23 23 23 34 34 34 34 339 177 177 177 177 177 219 219 219 219 238 139
 139 139 139 66 66 66 403 403 403 403 23 23 23 23 34 34 34 34 34 177
 177 177 177 219 219 219 219 219 219 139 139 139 139 66 66 66 403 403 403 403
 23 23 204 204 34 34 34 34 34 222 3 3 3 3 219 219 219 219 219 139
 342 139 139 66 66 212 212 212 190 190 204 204 204 204 204 34 34 34 222 3
 3 3 3 3 3 3 219 219 342 342 342 139 139 212 212 212 212 212 190 190
 190 204 204 204 204 204 34 34 400 400 3 3 3 3 3 3 3 3 342 342
 342 342 252 212 212 212 212 190 190 190 190 204 204 204 204 204 204 400 400 400
 3 3 3 3 3 3 3 389 342 342 252 252 252 252 212 212 212 190 190 190
 190 190 310 204 204 387 387 387 387 400 400 3 3 3 3 3 389 389 389 389
 252 252 252 252 404 404 404 190 190 190 190 310 310 310 310 387 387 387 387 387
 400 283 283 283 283 208 389 389 389 252 252 252 252 252 404 404 404 190 190 310
 310 310 310 310 310 387 387 387 387 387 283 283 283 283 283 208 208 389 389 252
 252 252 252 252 404 404 404 404 310 202 202 202 310 310 310 387 387 387 387 387
 283 283 283 283 283 208 389 389 389 252 364 364 364 364 215 215 215 215 202 202
 202 202 310 310 103 387 387 387 387 387 283 283 283 283 283 119 119 119 182 182
 182 364 189 215 215 215 215 215 202 202 202 202 380 380 103 103 103 103 103 387
 233 233 233 233 283 119 119 405 182 182 182 189 189 189 215 215 215 215 213 213
 213 213 380 380 103 103 103 103 103 227 227 233 233 233 233 119 405 405 182 182
 189 189 189 189 189 215 215 215 213 213 213 213 380 103 103 103 103 103 103 227
 227 227 233 233 233 16 405 405 182 189 189 189 189 189 189 215 215 402 402 213
 213 213 380 103 103 103 103 103 103 227 227 227 227 45 16 16 16 16 189 189
 189 189 189 189 189 243 402 402 402 402 6 6 6 103 103 103 103 103 227 227
 227 227 45 45 45 16 16 16 189 189 189 189 189 189 243 243 243 402 402 402
 6 6 6 103 103 103 103 302 302 302 302 227 45 45 45 16 16 16 352 189
 189 189 189 243 243 243 243 243 402 379 6 6 6 6 103 103 302 302 302 302
 302 302 45 45 45 16 168 168 168 168 200 200 243 243 243 243 243 243 183 156
 156 156 156 156 30 30 30 302 302 302 302 302 142 142 142 168 168 168 168 168
 200 200 200 243 243 243 243 243 243 156 156 156 156 156 30 30 30 30 302 302
 302 302 142 142 56 56 168 168 168 168 200 200 200 282 273 273 273 243 156 156
 156 156 156 156 193 193 30 30 302 302 302 302 97 97 56 56 56 168 168 200
 264 264 264 273 273 273 273 273 296 156 156 156 156 193 193 193 193 193 81 302
 302 121 97 97 56 56 56 374 281 281 264 264 264 273 273 273 273 273 296 296
 296 156 193 193 193 193 193 193 81 173 173 121 97 97 97 374 374 374 281 281
 264 264 264 273 273 273 273 273 296 296 296 156 193 193 193 193 193 193 81 173
 173 173 97 97 97 374 374 374 281 281 253 253 253 273 273 273 273 273 273 296
 296 41 193 193 193 193 193 193 81 173 173 173 97 97 97 374 374 374 281 281
 253 253 253 55 55 55 55 55 55 100 41 41 41 31 31 104 193 193 176 173
 7 7 7 7 247 247 396 396 396 396 396 253 55 55 55 55 55 55 55 100
 41 41 41 31 104 104 104 339 339 339 339 7 7 7 247 247 396 396 396 396
 396 396 55 55 55 55 55 55 55 100 41 41 41 41 358 358 358 339 339 339
 339 7 7 7 2 2 2 396 396 396 396 394 55 55 55 55 55 55 403 23
 23 23 23 358 358 358 358 222 339 339 339 7 7 2 2 2 2 2 238 238
 238 394 55 55 55 55 403 403 403 23 23 23 23 23 358 358 222 222 339 339
 339 177 177 177 2 2 2 195 238 238 139 139 66 66 66 66 403 403 403 403
 23 23 23 23 34 34 34 222 222 222 222 177 177 177 219 219 219 219 392 392
 139 139 139 66 66 66 403 403 403 403 23 23 23 23 34 34 34 222 222 222
 222 177 177 3 219 219 219 219 392 139 139 139 139 66 66 66 66 403 403 403
 23 23 204 204 34 34 34 222 222 222 3 3 3 3 3 219 219 219 392 139
 342 139 139 66 66 212 212 212 190 190 204 204 316 316 316 34 34 222 222 222
 3 3 3 3 3 3 3 3 342 342 342 342 139 212 212 212 212 212 190 190
 190 204 316 316 316 204 34 222 222 222 3 3 3 3 3 3 3 3 342 342
 342 342 252 212 212 212 212 190 190 190 190 204 316 316 316 204 387 387 387 400
 3 3 3 3 3 3 3 3 342 342 252 252 252 252 404 404 404 190 190 190
 190 190 310 316 204 387 387 387 387 387 3 3 3 3 3 3 3 389 389 342
 252 252 252 252 404 404 404 404 190 190 190 310 310 310 387 387 387 387 387 387
 283 283 283 283 283 208 208 389 389 252 252 252 252 252 404 404 404 404 190 310
 310 310 310 310 249 387 387 387 387 387 283 283 283 283 283 208 208 389 389 252
 252 252 252 252 404 404 404 404 404 202 202 202 202 249 249 249 387 387 387 387
 283 283 283 283 283 283 208 389 389 252 182 252 252 252 404 404 404 404 202 202
 202 202 202 380 249 249 249 387 387 387 283 283 283 283 283 283 119 182 182 182
 182 182 189 189 215 215 215 213 213 213 213 213 380 380 380 103 103 103 103 227
 283 283 14 14 14 283 119 182 182 182 182 189 189 189 189 215 215 213 213 213
 213 213 380 380 380 103 103 103 103 227 227 227 14 14 14 14 405 405 182 182
 189 189 189 189 189 215 215 124 213 213 213 213 380 380 103 103 103 103 103 227
 227 227 14 14 14 14 405 405 182 182 189 189 189 189 189 189 124 124 124 213
 213 213 380 103 103 103 103 390 390 227 227 227 227 14 14 16 352 352 352 189
 189 189 189 189 189 189 124 124 124 124 213 213 380 103 103 103 103 390 227 227