# vtk DataFile Version 2.0
Data set from IO Version 6.4.197.9a0dee2
ASCII

DATASET RECTILINEAR_GRID
DIMENSIONS 31 31 31
X_COORDINATES 31 float
-5.850000 5.850000 17.549999 29.249998 40.950001 52.650002 64.349998 76.050003 87.750000 99.449997 111.150002 122.849998 134.549988 146.249985 157.949997 169.649994 181.349991 193.049988 204.749985 216.449997 228.149994 
239.849991 251.549988 263.250000 274.949982 286.649994 298.349976 310.049988 321.750000 333.449982 345.149994 
Y_COORDINATES 31 float
-5.850000 5.850000 17.549999 29.249998 40.950001 52.650002 64.349998 76.050003 87.750000 99.449997 111.150002 122.849998 134.549988 146.249985 157.949997 169.649994 181.349991 193.049988 204.749985 216.449997 228.149994 
239.849991 251.549988 263.250000 274.949982 286.649994 298.349976 310.049988 321.750000 333.449982 345.149994 
Z_COORDINATES 31 float
-5.850000 5.850000 17.549999 29.249998 40.950001 52.650002 64.349998 76.050003 87.750000 99.449997 111.150002 122.849998 134.549988 146.249985 157.949997 169.649994 181.349991 193.049988 204.749985 216.449997 228.149994 
239.849991 251.549988 263.250000 274.949982 286.649994 298.349976 310.049988 321.750000 333.449982 345.149994 
CELL_DATA 27000
SCALARS FeatureIds int 1
LOOKUP_TABLE default
 56 56 56 56 56 56 56 56 56 56 155 221 221 221 221 159 159 159 5 5
 5 164 164 164 52 52 52 52 52 52 56 56 56 56 56 56 56 56 56 56
 221 221 221 221 221 221 159 159 153 153 153 153 164 52 52 52 52 52 52 125
 353 353 353 353 244 244 244 56 56 155 155 221 221 221 221 221 159 159 153 153
 153 153 164 52 52 52 52 52 125 125 353 353 353 353 244 244 244 244 244 155
 155 221 221 221 221 348 348 348 348 348 348 348 348 52 52 52 125 125 125 125
 353 353 353 353 244 244 244 244 244 244 78 221 221 221 222 222 222 348 348 348
 348 348 348 367 367 371 371 371 371 371 48 48 48 48 48 290 290 244 244 78
 78 78 221 222 222 222 222 348 348 348 348 348 348 348 367 371 371 371 371 371
 48 48 48 48 48 290 290 244 78 78 78 78 78 222 222 222 222 348 348 348
 348 348 348 348 367 371 371 371 371 371 18 48 48 48 48 322 322 322 78 78
 78 78 246 246 222 222 124 124 348 348 348 348 348 348 72 72 72 72 72 72
 18 18 48 48 322 322 322 322 78 78 78 78 246 246 246 246 124 124 124 124
 348 348 109 393 72 72 72 72 72 72 18 18 18 322 322 322 322 322 338 338
 338 338 246 246 246 246 124 124 124 124 109 109 109 109 72 72 72 72 72 72
 18 18 198 322 322 322 322 322 338 338 338 338 246 246 246 246 124 124 124 109
 109 109 109 109 109 72 72 72 72 18 18 198 198 198 322 322 322 338 338 338
 338 338 130 246 246 246 246 124 124 109 109 109 109 109 109 72 72 72 72 18
 198 198 198 193 193 193 193 43 43 43 43 43 83 83 130 130 325 325 325 109
 109 109 109 109 109 174 72 72 72 18 198 198 198 193 193 193 193 43 43 43
 43 43 130 130 130 130 325 325 325 325 109 109 242 242 174 174 174 72 72 18
 198 198 198 193 193 193 193 193 43 43 43 43 130 130 130 130 325 325 325 242
 242 242 242 242 242 174 236 282 282 282 282 255 255 193 193 193 193 193 43 43
 43 43 130 130 130 130 325 325 242 242 242 242 242 242 242 236 236 383 282 282
 255 255 255 193 193 193 193 193 193 43 43 43 130 130 166 166 166 166 242 242
 242 242 242 242 236 236 236 236 282 282 255 255 255 255 193 193 193 193 193 43
 43 166 166 166 166 166 166 166 166 242 242 242 242 113 236 236 236 236 236 255
 255 255 255 390 390 193 193 193 193 179 179 166 166 166 166 166 166 166 169 169
 169 169 169 169 236 236 236 236 215 215 215 255 390 390 390 390 193 193 179 179
 179 227 26 26 26 26 26 26 169 169 169 169 169 169 169 236 236 236 215 215
 215 215 390 390 390 390 193 413 413 413 413 227 26 26 26 26 26 26 169 169
 169 169 169 169 169 236 215 215 215 215 215 215 390 390 390 264 264 413 413 413
 413 227 227 26 26 26 26 26 26 169 169 169 169 301 301 301 215 215 215 215
 398 398 398 264 264 264 264 413 413 413 413 227 227 227 26 26 26 26 26 133
 301 301 301 301 301 301 301 398 398 398 398 398 398 264 264 264 264 264 413 413
 413 227 227 227 26 26 26 26 133 133 133 301 301 301 301 296 296 398 398 398
 398 398 398 264 264 264 264 264 413 413 413 227 227 227 26 26 26 183 183 133
 133 301 301 301 301 296 296 398 398 398 398 398 51 264 264 264 264 264 413 413
 413 227 227 227 26 183 183 183 183 183 133 301 301 301 296 296 296 398 398 398
 398 51 51 234 234 264 264 264 413 413 413 227 227 38 183 183 183 183 183 183
 133 133 301 301 296 209 296 398 398 398 51 51 51 234 234 264 264 264 96 96
 96 96 38 38 159 159 159 159 183 5 5 164 164 164 209 209 209 398 398 398
 51 51 51 234 234 234 56 56 96 96 96 96 159 159 159 159 159 159 5 5
 5 164 164 164 164 209 209 209 398 398 51 51 51 234 56 56 56 56 56 96
 96 221 221 221 159 159 159 159 5 5 5 164 164 164 164 209 209 209 398 398
 56 56 56 56 56 56 56 56 155 155 155 155 221 221 221 210 210 210 5 5
 5 164 164 144 144 52 52 52 125 125 244 244 244 244 244 244 56 56 155 155
 155 221 221 221 221 221 210 210 210 5 5 153 144 144 144 52 52 125 125 125
 353 353 353 244 244 244 244 244 155 155 155 155 221 221 221 210 210 210 348 348
 348 348 144 144 144 52 125 125 125 125 353 353 353 244 244 244 244 244 155 155
 155 155 221 221 221 348 348 348 348 348 348 348 348 367 367 125 125 125 125 125
 48 48 48 48 244 244 244 244 244 111 111 111 115 115 222 222 348 348 348 348
 348 348 348 367 367 371 371 371 371 125 48 48 48 48 48 290 290 244 244 78
 78 315 115 115 222 222 348 348 348 348 348 348 348 367 367 371 371 371 371 371
 48 48 48 48 48 290 290 244 78 78 78 78 111 115 222 222 348 348 348 348
 348 348 348 367 367 371 371 371 371 371 392 48 48 48 48 322 322 322 78 78
 78 78 111 246 246 124 124 124 348 348 348 348 348 367 367 72 72 72 72 72
 392 392 392 392 322 322 322 322 78 78 78 78 246 246 246 124 124 124 124 124
 348 348 393 393 393 72 72 72 72 72 18 392 392 392 322 322 322 322 338 338
 338 338 246 246 246 124 124 124 124 124 109 109 109 393 393 72 72 72 72 72
 18 198 198 198 322 322 322 322 338 338 338 338 246 246 246 246 124 124 124 109
 109 109 109 109 393 72 72 72 72 72 198 198 198 198 322 322 322 338 338 338
 338 338 130 246 246 246 124 124 124 109 109 109 109 109 174 174 72 72 72 72
 198 198 198 198 193 193 193 338 338 338 338 338 130 130 130 130 325 325 325 109
 109 109 109 109 174 174 174 72 72 72 198 198 198 193 193 193 193 193 43 43
 43 130 130 130 130 130 130 325 325 325 109 109 109 174 174 174 174 174 72 198
 198 198 198 193 193 193 193 193 43 43 43 130 130 130 130 130 130 325 325 242
 242 87 87 87 174 174 174 174 282 282 282 255 255 193 193 193 193 193 193 43
 43 130 130 130 130 130 166 166 242 242 242 87 87 87 174 174 236 236 282 282
 282 255 255 193 193 193 193 193 193 43 43 130 166 166 166 166 166 166 166 242
 242 87 87 87 236 236 236 236 282 282 255 255 255 193 193 193 193 193 193 179
 179 166 166 166 166 166 166 166 166 169 169 169 169 169 236 236 236 236 236 255
 255 255 390 390 390 193 193 193 179 179 179 166 166 166 166 166 166 166 166 169
 169 169 169 169 169 236 236 236 236 215 215 390 390 390 390 390 193 193 179 179
 179 166 166 166 166 166 166 166 169 169 169 169 169 169 169 236 236 236 215 215
 215 390 390 390 390 390 193 413 413 179 413 413 76 76 26 26 26 26 205 169
 169 169 169 169 169 236 215 215 215 215 215 381 390 390 390 264 264 413 413 413
 413 413 227 76 76 26 26 26 205 205 169 169 169 301 301 301 301 215 215 398
 398 381 381 264 264 264 264 413 413 413 413 413 227 76 26 26 26 26 205 205
 205 301 301 301 301 301 301 398 398 398 398 381 381 264 264 264 264 264 413 413
 413 413 227 227 26 26 26 183 183 205 133 301 301 301 301 301 296 398 398 398
 398 398 381 264 264 264 264 264 413 413 413 413 227 227 26 26 183 183 183 183
 183 301 301 301 301 296 296 398 398 398 398 398 51 264 264 264 264 264 413 413
 413 413 227 38 38 183 183 183 183 183 183 301 301 301 301 209 209 398 398 398
 168 51 51 4 4 4 264 264 96 96 96 96 38 38 38 183 183 183 183 183
 183 301 301 209 209 209 209 209 168 168 168 51 51 4 4 4 4 96 96 96
 96 96 38 38 38 159 183 183 183 5 5 164 164 209 209 209 209 209 168 168
 168 51 51 234 4 4 4 4 96 96 96 96 38 38 159 159 159 5 5 5
 5 164 164 164 209 209 209 209 168 168 168 51 51 234 4 4 4 56 96 96
 96 96 221 221 159 159 159 5 5 5 5 164 164 164 209 209 209 209 168 168
 39 39 39 39 244 56 56 155 155 155 155 155 155 221 210 210 210 210 210 5
 5 164 164 144 144 144 125 125 125 125 39 39 39 39 244 244 244 155 155 155
 155 155 221 221 221 210 210 210 210 210 5 144 144 144 144 144 125 125 125 125
 39 39 39 244 244 244 244 155 155 155 155 155 155 221 210 210 210 210 210 191
 191 191 144 144 144 125 125 125 125 125 39 39 39 244 244 244 244 244 155 155
 155 155 115 115 115 210 210 348 348 348 348 191 367 367 367 125 125 125 125 125
 48 48 48 48 244 244 244 244 155 111 111 111 115 115 115 115 348 348 348 348
 348 348 367 367 367 125 125 125 125 125 48 48 48 48 48 290 244 244 244 111
 111 315 115 115 115 222 348 348 348 348 348 348 367 367 367 367 371 371 371 371
 48 48 48 48 290 290 290 244 78 78 111 111 111 115 115 115 348 348 348 348
 348 348 367 367 367 367 371 371 371 371 392 392 48 48 290 290 322 322 78 78
 78 111 111 111 115 124 124 124 348 348 348 348 367 367 367 72 72 72 72 72
 392 392 392 392 322 322 322 322 78 78 78 111 111 246 246 124 124 124 124 124
 348 393 393 393 393 72 72 72 72 72 392 392 392 392 322 322 322 322 338 338
 338 338 246 246 246 124 124 124 124 124 109 109 393 393 393 72 72 72 72 72
 392 392 392 392 322 322 322 322 338 338 338 338 338 246 246 246 124 124 124 109
 109 109 109 393 393 72 72 72 72 72 392 198 198 198 322 322 322 338 338 338
 338 338 130 130 246 246 124 124 124 109 109 109 109 109 174 174 174 72 72 72
 198 198 198 198 193 193 193 338 338 338 338 338 130 130 130 130 124 325 295 109
 109 109 109 174 174 174 174 174 72 72 198 198 198 193 193 193 193 193 338 338
 338 130 130 130 130 130 130 295 295 295 109 109 109 174 174 174 174 174 174 198
 198 198 198 193 193 193 193 193 193 43 43 130 130 130 130 130 130 295 295 295
 295 87 87 174 174 174 174 174 282 282 282 198 193 193 193 193 193 193 193 43
 43 130 130 130 130 166 166 166 295 295 87 87 87 87 174 174 174 174 282 282
 282 255 193 193 193 193 193 193 193 193 43 166 166 166 166 166 166 166 166 242
 87 87 87 87 174 236 236 236 282 282 255 255 193 193 193 193 193 193 193 179
 179 166 166 166 166 166 166 166 166 169 169 169 87 87 236 236 236 236 236 282
 255 255 390 390 390 193 193 193 179 179 179 166 166 166 166 166 166 166 166 169
 169 169 169 169 169 236 236 236 236 335 335 390 390 390 390 390 193 179 179 179
 179 179 166 166 166 166 166 166 166 169 169 169 169 169 169 236 236 236 215 335
 335 335 390 390 390 390 298 179 179 179 179 179 76 76 76 76 166 205 205 205
 169 169 169 169 169 236 215 335 335 335 335 381 381 390 390 264 199 199 199 199
 413 413 76 76 76 76 26 205 205 205 205 169 169 301 301 301 301 398 398 398
 381 381 381 264 264 264 264 199 199 413 413 413 76 76 76 76 26 205 205 205
 205 301 301 301 301 301 301 398 398 398 381 381 381 264 264 264 264 264 413 413
 413 413 227 76 76 76 26 205 205 205 205 301 301 301 301 301 301 398 398 398
 398 381 381 264 264 264 264 264 413 413 413 413 413 38 76 76 183 183 183 183
 122 301 301 301 301 301 296 398 398 398 168 168 381 264 264 264 264 117 413 413
 413 413 38 38 38 183 183 183 183 183 122 122 122 301 209 209 209 209 168 168
 168 168 168 4 4 4 4 117 96 96 96 96 38 38 38 38 183 183 183 183
 122 122 122 209 209 209 209 209 168 168 168 168 51 4 4 4 4 96 96 96
 96 96 38 38 38 38 183 183 183 5 5 164 164 209 209 209 209 209 168 168
 168 168 51 4 4 4 4 4 96 96 96 96 38 38 38 38 159 5 5 5
 5 164 164 209 209 209 209 209 168 168 168 168 51 4 4 4 4 4 155 155
 155 155 38 38 38 159 210 210 5 5 5 164 164 164 209 209 209 209 168 168
 39 39 39 39 39 39 155 155 155 155 155 155 360 360 360 210 210 210 210 210
 5 164 144 144 144 209 209 125 125 125 39 39 39 39 39 244 244 155 155 155
 155 155 360 360 360 210 210 210 210 210 191 144 144 144 144 144 125 125 125 125
 39 39 39 39 39 244 244 155 155 155 155 155 360 360 360 210 210 210 210 191
 191 191 144 144 144 125 125 125 125 125 39 39 39 39 244 244 244 244 155 155
 155 111 111 111 111 210 210 191 191 191 191 191 367 367 367 125 125 125 125 125
 48 48 48 48 244 244 244 244 111 111 111 111 115 115 115 115 191 191 191 191
 191 191 367 367 367 125 125 125 125 125 77 48 48 48 345 345 244 244 111 111
 111 315 115 115 115 115 191 191 348 348 348 367 367 363 367 367 125 125 125 125
 77 77 48 48 290 345 290 244 111 111 111 111 111 115 115 115 348 348 348 348
 348 348 367 367 367 367 395 395 395 395 392 392 392 163 290 345 322 322 78 111
 111 111 111 111 111 124 124 124 348 348 348 348 367 367 367 367 72 72 72 72
 392 392 392 392 322 322 322 322 78 111 111 111 111 111 111 124 124 124 124 124
 348 393 393 393 393 393 72 72 72 72 392 392 392 392 322 322 322 322 338 338
 338 111 111 108 246 124 124 124 124 124 109 393 393 393 393 393 72 72 72 72
 392 392 392 392 322 322 322 338 338 338 338 338 108 108 246 246 124 124 124 109
 109 109 393 393 393 206 206 72 72 72 392 392 392 355 355 355 322 338 338 338
 338 338 338 130 246 246 124 124 295 109 109 109 109 206 206 206 206 206 72 72
 198 198 198 355 355 355 355 338 338 338 338 338 226 226 130 130 124 295 295 295
 295 109 109 174 174 174 174 174 174 72 198 198 198 193 193 355 193 193 12 12
 12 12 226 130 130 130 295 295 295 295 295 109 109 174 174 174 174 174 174 198
 198 198 198 193 193 193 193 193 12 12 12 130 130 130 130 130 295 295 295 295
 295 87 87 174 174 174 174 174 282 282 282 198 193 193 193 193 193 193 193 12
 12 130 130 166 166 166 166 166 295 295 295 87 87 87 174 174 174 174 282 282
 282 255 193 193 193 193 193 193 193 179 179 166 166 166 166 166 166 166 166 166
 87 87 87 87 174 236 236 236 282 282 255 255 193 193 193 193 193 193 179 179
 179 166 166 166 166 166 166 166 166 166 169 169 87 87 236 236 236 236 236 282
 335 335 390 390 298 298 298 179 179 179 179 149 166 166 166 166 166 166 166 166
 169 169 169 169 169 409 236 236 236 335 335 335 390 390 298 298 298 179 179 179
 179 179 149 149 166 166 166 166 205 205 169 169 169 169 169 409 236 236 335 335
 335 335 390 390 298 298 298 179 179 179 179 179 76 76 76 76 166 205 205 205
 205 169 169 169 232 232 232 335 335 335 335 335 335 390 298 298 298 199 199 199
 413 76 76 76 76 76 76 205 205 205 205 205 169 301 301 232 232 335 335 335
 381 381 381 381 264 264 264 199 199 199 413 413 76 76 76 76 76 205 205 205
 205 19 301 301 301 301 42 398 398 398 381 381 381 381 264 264 264 264 413 413
 413 413 76 76 76 76 134 205 205 205 19 19 301 301 301 42 42 42 398 381
 381 381 381 381 264 264 264 117 117 413 413 413 413 38 38 134 134 182 182 182
 122 122 122 301 42 42 42 42 398 398 168 381 381 4 4 4 117 117 117 96
 413 96 38 38 38 204 204 204 182 182 122 122 122 209 209 209 209 209 168 168
 168 168 381 4 4 4 4 117 96 96 96 96 38 38 38 38 204 204 183 182
 122 122 122 209 209 209 209 209 168 168 168 168 168 4 4 4 4 96 96 96
 96 96 38 38 38 38 204 204 204 5 122 164 209 209 209 209 209 209 168 168
 168 168 168 4 4 4 4 4 96 96 96 96 38 38 38 38 204 5 5 5
 5 164 164 209 209 209 209 209 168 168 168 168 168 4 4 4 4 4 155 155
 155 96 38 38 38 210 210 210 210 5 5 164 164 209 209 209 209 209 168 168
 217 39 39 39 39 370 370 155 155 155 155 155 360 360 360 210 210 210 210 191
 191 7 144 144 144 209 125 125 125 125 39 39 39 39 39 244 370 155 155 155
 155 155 360 360 360 210 210 210 210 191 191 191 144 144 144 144 125 125 125 125
 39 39 39 39 39 244 244 155 155 155 155 111 360 360 360 210 210 210 191 191
 191 191 144 144 144 125 125 125 125 125 402 39 39 39 244 244 244 155 155 111
 111 111 111 111 111 210 191 191 191 191 191 191 191 367 367 125 125 125 125 125
 77 163 163 345 345 345 345 345 111 111 111 111 111 111 111 111 191 191 191 191
 191 191 367 367 367 125 125 125 125 125 77 163 163 163 345 345 345 345 111 111
 111 111 111 115 115 115 191 191 191 191 191 191 367 367 367 367 395 395 395 395
 77 77 163 163 345 345 345 345 111 111 111 111 111 111 115 115 191 191 191 191
 191 367 367 367 367 367 395 395 395 395 77 77 77 163 163 345 345 345 111 111
 111 111 111 111 111 111 191 191 191 348 348 367 367 367 367 367 72 395 72 357
 357 392 392 163 265 265 265 265 111 111 111 111 111 111 111 108 124 124 61 61
 61 393 393 393 393 206 206 206 357 357 392 392 392 392 265 265 265 399 338 338
 111 111 108 108 108 108 108 124 61 61 61 393 393 393 393 206 206 206 357 357
 392 392 392 392 355 265 399 399 399 338 338 108 108 108 108 108 108 124 61 61
 102 102 102 393 206 206 206 206 206 357 392 392 267 355 355 355 355 12 12 12
 12 12 108 108 108 108 108 339 102 102 102 102 102 206 206 206 206 206 206 357
 198 267 267 355 355 355 355 12 12 12 12 12 226 226 226 226 226 295 295 295
 102 102 102 206 206 206 206 206 206 206 198 198 267 355 355 355 355 12 12 12
 12 12 226 226 226 226 226 295 295 295 295 102 102 174 174 174 174 174 206 14
 14 198 355 355 355 355 355 12 12 12 12 12 226 226 226 226 295 295 295 295
 295 208 208 174 174 174 174 174 14 14 14 14 193 193 193 355 355 12 12 12
 12 12 226 226 166 166 166 166 295 295 208 208 208 174 174 174 174 174 14 14
 14 14 193 193 193 193 193 193 12 12 12 166 166 166 166 166 166 166 166 166
 208 208 208 87 174 409 409 409 14 14 14 14 298 298 298 298 298 298 154 154
 154 166 166 166 166 166 166 166 166 166 208 208 208 87 409 409 409 409 409 14
 335 335 298 298 298 298 298 298 154 154 154 149 149 149 166 166 166 166 166 166
 169 169 169 169 409 409 409 409 409 335 335 335 335 298 298 298 298 154 154 154
 154 149 149 149 149 149 166 166 205 205 205 317 317 317 232 409 409 409 335 335
 335 335 335 298 298 298 298 154 154 154 154 149 149 149 149 149 101 101 205 205
 205 317 317 317 232 232 232 232 335 335 335 335 335 298 298 298 298 154 154 154
 154 149 76 76 76 76 101 101 205 205 205 19 317 317 232 232 232 232 335 335
 381 381 381 22 297 298 298 314 314 314 314 314 76 76 76 134 101 101 205 205
 19 19 19 19 232 232 232 232 335 335 381 381 381 22 297 53 53 314 314 314
 314 314 131 76 134 134 134 101 205 19 19 19 19 19 42 42 42 42 42 98
 381 381 381 22 53 53 53 117 314 314 314 314 131 131 134 134 134 182 182 182
 19 19 19 19 42 42 42 42 98 98 98 381 381 22 53 53 53 117 117 96
 96 131 38 38 204 204 204 204 182 182 182 122 122 42 42 42 42 42 168 98
 168 168 168 4 4 4 4 117 96 96 96 96 38 38 38 204 204 204 204 182
 182 122 122 209 209 209 209 209 168 168 168 168 168 4 4 4 4 96 96 96
 96 96 38 38 331 204 204 204 204 182 182 122 209 209 209 209 209 209 168 168
 168 168 168 4 4 4 4 4 96 96 96 96 38 38 38 204 204 204 204 5
 5 164 209 209 209 209 209 209 168 168 168 168 168 370 370 370 370 370 155 155
 155 155 38 360 38 319 210 210 210 5 5 164 164 209 209 209 209 209 168 168
 217 217 39 39 370 370 370 192 192 192 192 192 360 360 360 319 319 210 191 191
 191 7 7 308 308 85 125 217 217 217 217 217 39 39 39 370 370 192 192 192
 192 192 360 360 360 360 210 210 191 191 191 191 7 144 144 85 125 125 125 125
 402 39 39 39 39 244 192 192 192 192 192 111 360 360 360 360 191 191 191 191
 191 191 191 144 144 125 125 125 125 125 402 402 39 39 345 244 345 192 192 111
 111 111 111 111 360 360 191 191 191 191 191 191 191 143 143 125 125 125 125 125
 402 163 163 345 345 345 345 345 111 111 111 111 111 111 111 111 191 191 191 191
 191 191 191 143 143 125 395 395 395 395 77 163 163 163 345 345 345 345 111 111
 111 111 111 111 111 111 191 191 191 191 191 191 143 143 143 395 395 395 395 395
 77 77 163 163 345 345 345 345 111 111 111 111 111 111 111 111 312 312 191 191
 191 191 143 143 143 395 395 395 395 395 77 77 77 163 163 265 265 265 111 111
 111 111 111 111 111 111 312 312 191 191 191 191 11 11 11 206 395 395 395 357
 357 77 77 265 265 265 265 265 265 111 111 111 111 111 108 108 108 61 61 61
 61 393 11 11 206 206 206 206 357 357 357 392 392 265 265 265 265 399 399 111
 111 108 108 108 108 108 108 339 61 61 61 102 393 206 206 206 206 206 357 357
 357 392 267 265 265 265 399 399 399 399 108 108 108 108 108 108 108 339 339 61
 102 102 102 206 206 206 206 206 357 357 357 267 267 267 355 355 399 399 399 12
 12 108 108 108 108 108 108 339 339 102 102 102 102 206 206 206 206 206 206 357
 267 267 267 267 355 355 355 12 12 12 12 12 226 226 226 108 108 107 107 107
 102 102 102 206 206 206 206 206 206 206 14 267 267 355 355 355 355 12 12 12
 12 12 226 226 226 226 108 107 107 107 107 102 102 206 206 206 206 206 206 14
 14 14 267 355 355 355 355 12 12 12 12 12 226 226 226 226 226 107 107 107
 208 208 208 174 174 174 174 206 14 14 14 14 253 355 355 355 355 12 12 12
 12 12 226 226 166 166 166 166 166 208 208 208 208 208 174 174 409 409 14 14
 14 14 253 253 193 193 193 193 372 372 372 149 166 166 166 166 166 166 166 208
 208 208 208 208 409 409 409 409 14 14 14 14 177 298 298 298 298 154 154 154
 154 149 149 166 166 166 166 166 166 63 63 208 208 409 409 409 409 409 409 14
 335 335 298 298 298 298 298 154 154 154 154 149 149 149 149 166 166 166 166 63
 63 63 317 317 409 409 409 409 409 335 335 335 298 298 298 298 298 154 154 154
 154 149 149 149 149 149 166 166 166 205 317 317 317 317 232 409 409 409 335 335
 335 335 335 298 298 298 298 154 154 154 154 149 149 149 149 149 101 101 101 205
 317 317 317 317 232 232 232 232 335 335 335 335 22 22 298 298 298 154 154 154
 154 149 149 149 149 149 101 101 101 205 19 317 317 317 232 232 232 232 335 335
 381 22 22 22 297 297 298 314 314 314 314 131 131 76 134 134 101 101 101 19
 19 19 19 19 232 232 232 232 335 335 381 22 22 22 297 297 53 314 314 314
 314 131 131 131 134 134 134 182 182 19 19 19 19 19 42 42 42 42 98 98
 98 22 22 22 53 53 53 314 314 314 314 131 131 131 134 134 134 182 182 182
 19 19 19 19 42 42 42 42 98 98 98 98 22 22 53 53 53 53 314 314
 314 131 131 131 134 204 204 204 182 182 182 19 19 42 42 42 42 42 98 98
 98 98 22 22 53 53 53 53 96 96 123 123 331 331 331 204 204 204 182 182
 182 182 308 42 42 42 42 42 98 98 168 168 304 4 4 4 4 96 96 96
 123 123 331 331 331 204 204 204 204 182 182 308 308 308 209 209 209 209 168 168
 168 168 304 370 370 370 370 370 96 96 123 123 123 331 331 319 319 204 204 182
 182 308 308 308 308 209 209 209 168 168 217 217 370 370 370 370 370 370 192 192
 192 123 123 360 319 319 319 319 210 5 7 7 308 308 308 209 209 209 217 217
 217 217 304 304 370 370 370 192 192 192 192 123 360 360 319 319 319 319 191 191
 191 7 7 308 308 85 85 217 217 217 217 217 304 304 370 370 370 192 192 192
 192 192 360 360 360 319 319 191 191 191 191 191 7 144 85 85 85 217 217 217
 402 402 39 39 39 370 192 192 192 192 192 111 360 360 360 360 191 191 191 191
 191 191 191 144 85 85 85 125 125 402 402 402 402 345 345 345 345 111 111 111
 111 111 111 111 360 191 191 191 191 191 191 191 191 143 143 125 125 125 402 402
 402 402 163 345 345 345 345 345 111 111 111 111 111 111 111 312 312 191 191 191
 191 191 143 143 143 143 395 395 395 402 402 163 163 163 345 345 345 345 111 111
 111 111 111 111 111 312 312 312 312 191 191 143 143 143 143 143 395 395 395 402
 77 77 163 163 345 345 345 345 111 111 111 111 111 111 111 312 312 312 312 191
 191 143 143 143 143 143 395 395 395 402 77 77 77 163 265 265 265 265 111 111
 111 111 111 111 111 108 312 312 312 191 191 143 11 11 11 143 395 395 395 357
 77 77 77 265 265 265 265 265 265 111 111 111 111 111 108 108 108 312 61 61
 61 11 11 11 11 206 206 206 357 357 357 77 77 265 265 265 265 399 399 399
 111 108 108 108 108 108 108 339 339 61 61 102 11 11 11 206 206 206 357 357
 357 267 267 265 265 265 399 399 399 399 399 108 108 108 108 108 108 339 339 339
 102 102 102 206 206 206 206 206 357 357 357 267 267 267 265 355 399 399 399 12
 12 108 108 108 108 108 108 339 339 339 102 102 102 206 206 206 206 206 206 357
 267 267 267 267 355 355 355 399 12 12 12 12 226 226 108 108 108 107 107 107
 107 102 102 206 206 206 206 206 206 206 14 267 267 267 355 355 355 12 12 12
 12 12 226 226 226 226 108 107 107 107 107 107 102 206 206 206 206 206 206 14
 14 14 267 355 355 355 355 12 12 12 12 12 226 226 226 226 226 107 107 107
 107 208 208 206 206 206 206 206 14 14 14 14 253 253 355 355 355 12 12 12
 12 12 226 226 260 260 260 107 107 107 208 208 208 208 206 174 409 14 14 14
 14 14 253 253 253 253 253 372 372 372 372 372 226 260 260 260 260 260 166 63
 208 208 208 208 409 409 409 409 14 14 14 177 177 253 253 298 298 372 372 372
 372 149 149 260 260 260 260 260 63 63 63 63 208 208 409 409 409 409 409 14
 167 177 177 298 298 298 298 154 154 154 154 149 149 149 260 260 260 260 63 63
 63 63 63 317 409 409 409 409 167 167 167 167 177 298 298 298 298 154 154 154
 154 149 149 149 149 149 260 260 63 63 63 317 317 317 317 409 409 409 167 167
 167 335 298 298 298 298 298 154 154 154 154 149 149 149 149 149 101 101 135 135
 317 317 317 317 232 232 232 232 167 167 335 22 22 22 297 298 298 314 314 314
 314 149 149 149 149 149 101 101 135 135 135 317 317 317 232 232 232 232 167 335
 22 22 22 22 297 297 240 314 314 314 314 131 131 131 134 134 101 101 101 135
 19 19 317 317 232 232 232 232 98 98 22 22 22 22 297 297 314 314 314 314
 314 131 131 131 134 134 134 101 182 19 19 19 19 19 42 42 42 42 98 98
 98 22 22 22 22 53 53 314 314 314 314 131 131 131 134 134 134 182 182 182
 19 19 19 19 42 42 42 42 98 98 98 98 22 22 53 53 53 314 314 314
 131 131 131 131 131 204 204 182 182 182 182 19 19 42 42 42 42 42 98 98
 98 98 22 22 53 53 53 314 314 314 123 123 123 331 331 204 204 204 182 182
 182 182 308 42 42 42 42 42 98 98 98 304 304 304 53 53 53 96 96 123
 123 123 123 331 331 319 204 204 204 182 182 308 308 308 308 42 42 42 98 98
 217 304 304 304 370 370 370 370 147 147 123 123 123 123 319 319 319 319 204 182
 308 308 308 308 308 308 209 217 217 217 217 304 304 304 370 370 370 370 147 147
 123 123 123 123 319 319 319 319 204 182 7 7 308 308 308 308 209 217 217 217
 217 304 304 304 370 370 370 147 147 147 147 123 123 319 319 319 319 319 191 191
 191 191 308 308 308 85 85 217 217 217 217 304 304 304 370 370 370 192 192 192
 219 219 360 360 319 319 319 191 191 191 191 191 191 308 85 85 85 217 217 217
 402 402 304 304 211 211 211 219 219 219 219 219 111 360 360 319 191 191 191 191
 191 191 191 191 85 85 85 125 402 402 402 402 402 211 345 211 211 219 219 219
 219 111 111 111 111 191 191 191 191 191 191 191 143 143 143 85 85 125 402 402
 402 402 238 345 345 345 345 219 219 219 111 111 111 111 111 312 312 312 312 191
 191 191 143 143 143 143 220 220 402 402 402 238 238 163 345 345 345 111 111 111
 111 111 111 111 111 312 312 312 312 191 191 143 143 143 143 143 220 220 220 402
 238 238 238 163 345 345 345 20 20 20 111 111 111 111 111 312 312 312 312 191
 191 143 143 143 143 143 220 220 220 402 238 238 238 163 265 265 265 20 20 20
 20 111 111 111 111 312 312 312 312 71 71 143 11 11 143 143 171 171 171 238
 238 238 238 265 265 265 265 265 20 20 20 111 111 111 108 108 312 71 71 71
 71 71 11 11 11 206 206 171 178 178 178 178 238 265 265 265 265 399 399 399
 20 108 108 108 108 108 108 339 339 71 71 71 11 11 11 206 206 206 178 178
 178 178 267 265 265 265 265 399 399 399 399 108 108 108 108 108 108 339 339 339
 71 71 11 206 206 206 206 206 178 178 178 178 267 267 265 265 399 399 399 399
 310 310 108 108 108 64 64 339 339 339 107 102 102 206 206 206 206 206 178 178
 178 178 267 267 355 355 355 399 12 12 310 310 310 138 108 64 108 107 107 107
 107 107 102 206 206 206 206 206 178 178 178 178 267 267 355 355 355 47 12 12
 310 310 138 138 138 156 156 107 107 107 107 107 387 387 206 206 206 206 178 178
 178 178 267 355 355 355 355 12 12 12 310 310 138 138 138 156 156 156 107 107
 107 107 208 387 206 206 206 206 14 178 14 177 253 253 253 253 253 12 12 372
 372 310 310 260 260 260 156 156 156 107 107 208 208 208 206 174 409 14 14 14
 14 177 253 253 253 253 253 372 372 372 372 372 310 260 260 260 260 260 156 63
 63 70 70 70 409 409 409 148 14 14 177 177 177 253 253 253 253 372 372 372
 372 372 149 260 260 260 260 260 63 63 63 70 70 70 409 409 409 148 148 167
 167 177 177 177 253 253 298 372 372 372 372 149 149 260 260 260 260 260 63 63
 63 70 70 70 148 148 148 148 167 167 167 177 177 177 298 298 240 240 154 154
 154 149 149 149 149 260 260 260 63 63 63 317 317 317 354 148 148 148 167 167
 167 167 240 240 240 240 240 240 154 154 154 149 149 149 149 149 101 101 135 135
 317 317 317 317 354 354 354 148 167 167 22 22 22 22 240 240 240 240 314 314
 314 314 149 149 149 149 101 101 135 135 135 317 317 317 354 354 354 354 167 203
 22 22 22 22 297 240 240 314 314 314 314 131 131 131 134 134 101 101 135 135
 135 317 317 317 354 354 354 354 203 203 22 22 22 22 22 297 240 314 314 314
 314 131 131 131 134 134 134 101 182 19 19 19 19 19 42 42 42 203 203 203
 98 22 22 22 22 22 314 314 314 314 131 131 131 131 131 134 134 182 182 182
 19 19 19 19 42 42 42 42 98 98 98 22 22 22 22 53 53 314 314 314
 131 131 131 131 131 204 204 182 182 182 182 19 19 42 42 42 42 42 98 98
 98 98 22 22 22 53 53 314 314 314 123 123 123 123 331 204 307 307 182 182
 182 308 308 308 84 84 84 84 98 98 217 304 304 304 304 53 53 314 123 123
 123 123 123 123 319 319 319 307 307 182 308 308 308 308 308 84 84 84 217 217
 217 304 304 304 370 370 370 147 147 147 123 123 123 123 319 319 319 319 307 182
 308 308 308 308 308 84 84 217 217 217 217 304 304 304 370 370 370 147 147 147
 147 123 123 319 319 319 319 319 319 319 308 308 308 308 308 308 84 217 217 217
 217 304 304 304 304 211 211 147 147 147 147 123 123 319 319 319 319 319 191 191
 191 308 308 308 308 85 85 217 217 217 217 304 304 304 211 211 211 219 219 219
 219 219 360 319 319 319 319 191 191 191 191 191 308 308 85 85 85 217 217 217
 402 402 186 186 211 211 211 219 219 219 219 219 219 360 319 319 191 191 191 191
 191 191 191 85 85 85 85 85 402 402 402 402 186 211 211 211 211 219 219 219
 219 219 219 111 111 129 191 191 191 191 191 191 143 143 143 85 85 402 402 402
 402 402 238 257 257 257 257 219 219 219 219 219 111 111 111 312 312 312 312 191
 25 25 143 143 143 143 220 220 402 402 238 238 238 238 257 257 257 219 219 219
 219 111 111 111 312 312 312 312 312 191 25 25 143 143 143 143 220 220 220 402
 238 238 238 238 257 257 257 20 20 20 20 20 111 111 111 312 312 312 312 191
 25 25 143 143 143 143 171 171 171 238 238 238 238 238 265 265 265 20 20 20
 20 20 20 111 95 312 312 71 71 71 71 25 143 143 143 143 171 171 171 238
 238 238 238 265 265 265 265 20 20 20 20 20 95 95 95 95 71 71 71 71
 71 71 11 11 11 11 171 171 171 178 178 238 238 265 265 265 265 265 20 20