# vtk DataFile Version 2.0
Data set from IO Version 6.4.197.9a0dee2
ASCII

DATASET RECTILINEAR_GRID
DIMENSIONS 31 31 31
X_COORDINATES 31 float
-5.850000 5.850000 17.549999 29.249998 40.950001 52.650002 64.349998 76.050003 87.750000 99.449997 111.150002 122.849998 134.549988 146.249985 157.949997 169.649994 181.349991 193.049988 204.749985 216.449997 228.149994 
239.849991 251.549988 263.250000 274.949982 286.649994 298.349976 310.049988 321.750000 333.449982 345.149994 
Y_COORDINATES 31 float
-5.850000 5.850000 17.549999 29.249998 40.950001 52.650002 64.349998 76.050003 87.750000 99.449997 111.150002 122.849998 134.549988 146.249985 157.949997 169.649994 181.349991 193.049988 204.749985 216.449997 228.149994 
239.849991 251.549988 263.250000 274.949982 286.649994 298.349976 310.049988 321.750000 333.449982 345.149994 
Z_COORDINATES 31 float
-5.850000 5.850000 17.549999 29.249998 40.950001 52.650002 64.349998 76.050003 87.750000 99.449997 111.150002 122.849998 134.549988 146.249985 157.949997 169.649994 181.349991 193.049988 204.749985 216.449997 228.149994 
239.849991 251.549988 263.250000 274.949982 286.649994 298.349976 310.049988 321.750000 333.449982 345.149994 
CELL_DATA 27000
SCALARS FeatureIds int 1
LOOKUP_TABLE default
 106 106 106 106 106 106 106 106 175 175 327 327 327 389 389 389 389 389 281 281
 281 281 281 281 281 281 360 360 360 360 106 106 106 106 106 106 106 175 175 175
 175 327 327 389 389 389 389 389 281 281 281 281 281 281 108 108 108 108 360 360
 106 106 106 106 106 106 106 175 175 175 175 327 327 327 389 389 389 389 389 281
 281 281 281 108 108 108 108 108 108 108 43 106 106 106 106 73 73 175 175 175
 175 175 344 327 389 389 389 389 350 350 350 281 281 108 108 108 108 108 108 135
 43 43 106 106 73 73 73 73 175 175 175 344 344 344 344 344 389 350 350 350
 350 350 108 108 108 108 108 108 135 135 43 43 43 73 73 73 73 73 255 336
 344 344 344 344 344 344 350 350 350 350 350 350 177 177 278 278 278 135 135 135
 218 218 218 73 73 73 73 255 255 255 344 344 344 344 344 344 348 350 350 350
 350 177 177 177 177 278 278 135 135 135 218 218 218 218 22 22 255 255 255 255
 255 344 344 344 344 344 348 348 350 350 350 177 177 177 177 177 135 135 135 135
 218 218 218 22 22 22 22 255 255 255 114 114 114 114 114 115 115 66 66 66
 66 177 177 177 177 177 86 86 135 135 211 211 211 22 22 22 22 22 255 63
 114 114 114 114 114 115 115 66 66 66 66 157 177 177 177 86 86 86 86 135
 211 211 211 22 22 22 22 22 63 63 63 114 114 114 114 115 115 115 66 66
 157 157 157 177 147 86 86 86 86 211 211 211 211 365 365 22 22 63 63 63
 63 63 114 114 115 115 115 115 215 215 157 157 157 147 147 147 147 189 189 189
 189 211 211 365 365 365 63 63 63 63 63 63 63 114 115 115 115 215 215 215
 215 215 215 147 147 147 147 189 189 189 189 46 365 365 365 365 63 63 63 63
 63 63 63 63 115 115 215 215 215 215 215 215 215 147 147 147 147 189 189 189
 189 46 46 365 365 365 63 63 63 63 63 63 63 63 115 115 215 215 215 215
 215 215 339 339 339 147 205 205 189 189 189 46 46 268 268 268 268 63 63 63
 63 63 63 63 42 42 42 243 243 243 243 243 339 339 339 205 205 205 205 189
 189 46 268 268 268 268 268 39 296 296 296 63 277 277 42 42 42 42 243 243
 243 243 339 339 339 339 205 205 205 189 329 329 329 268 268 24 39 39 296 296
 296 296 277 42 42 42 42 42 42 8 243 243 339 339 339 99 99 99 130 130
 329 329 329 268 268 24 39 39 296 296 296 296 277 42 42 42 42 42 42 8
 243 44 44 44 44 99 99 99 130 130 329 329 329 329 329 24 39 39 324 324
 324 324 324 42 42 42 42 42 42 42 120 44 44 44 44 99 99 99 130 130
 329 329 329 329 329 329 56 56 56 324 324 324 324 144 144 42 42 295 295 295
 120 120 120 44 44 99 99 99 99 130 217 217 217 329 329 56 56 56 56 324
 324 324 324 144 144 144 42 295 295 295 120 120 120 120 257 257 99 99 99 204
 217 217 217 217 217 56 56 56 56 242 324 324 144 144 144 144 228 295 295 295
 120 120 120 120 257 257 257 257 99 217 217 217 217 217 217 260 56 56 242 242
 242 242 228 228 228 228 228 228 295 120 120 120 120 120 257 257 257 257 249 249
 249 217 217 217 138 138 260 242 242 242 242 242 228 228 228 228 228 228 228 120
 120 120 120 120 257 257 118 249 249 249 249 249 217 138 138 138 138 242 242 242
 242 242 228 228 228 228 228 228 228 120 120 120 120 118 118 118 118 249 249 249
 249 249 138 138 138 138 138 242 242 242 242 104 228 228 228 228 228 228 228 281
 281 281 281 118 118 118 118 249 249 249 140 249 138 138 138 138 138 138 242 242
 104 104 104 228 228 228 228 228 228 281 281 281 281 281 118 118 118 249 140 140
 140 140 138 138 138 138 138 138 242 242 104 104 104 228 228 228 228 228 281 281
 281 281 281 281 281 118 360 360 360 140 140 106 106 138 138 138 138 138 242 242
 104 104 104 389 389 389 389 389 281 281 281 281 281 281 281 281 360 360 360 140
 106 106 106 106 106 106 106 106 307 307 327 327 327 327 327 389 389 389 281 281
 281 281 281 281 281 281 360 360 360 164 106 106 106 106 106 106 106 175 175 175
 327 327 327 327 327 389 389 389 281 281 281 281 281 281 281 108 108 308 308 308
 106 106 106 106 106 106 106 175 175 175 175 327 327 327 327 389 389 389 273 273
 273 281 281 281 108 108 108 108 308 308 106 106 106 106 106 73 73 175 175 175
 175 327 327 327 327 389 348 348 273 273 273 281 281 108 108 108 108 108 308 308
 43 106 106 106 73 73 73 73 336 175 175 344 344 344 344 344 348 348 348 273
 273 273 278 278 278 278 278 278 135 135 43 43 43 73 73 73 73 73 336 336
 336 344 344 344 344 344 348 348 348 350 350 350 177 177 278 278 278 278 135 135
 218 218 218 73 73 73 73 73 336 336 336 344 344 344 344 348 348 348 348 350
 350 177 177 177 177 278 278 135 135 135 218 218 218 218 22 22 22 22 255 336
 336 344 344 344 344 348 348 348 348 66 66 177 177 177 177 278 278 135 135 135
 218 218 218 22 22 22 22 22 255 255 114 114 114 114 115 115 115 348 66 66
 66 177 177 177 177 177 86 135 135 135 211 211 211 22 22 22 22 22 22 63
 114 114 114 114 115 115 115 115 66 66 66 66 177 177 177 177 86 86 86 211
 211 211 211 22 22 22 22 22 63 63 63 114 114 114 115 115 115 115 66 66
 66 66 177 177 177 147 86 86 189 211 211 211 211 211 22 22 22 63 63 63
 63 63 114 114 115 115 115 115 115 66 66 66 147 147 147 147 147 189 189 189
 189 211 211 365 365 365 63 63 63 63 63 63 63 114 115 115 115 115 215 215
 215 215 147 147 147 147 147 189 189 189 189 189 211 365 365 365 63 63 63 63
 63 63 63 115 115 115 115 115 215 215 215 215 147 147 147 147 147 189 189 189
 189 189 189 365 268 268 63 63 63 63 63 63 63 63 115 115 115 243 243 243
 243 243 339 339 147 147 205 205 189 189 189 189 189 268 268 268 268 63 63 63
 63 63 63 277 277 42 42 243 243 243 243 243 339 339 339 205 205 205 205 189
 189 189 268 268 268 268 268 63 63 63 63 63 277 277 277 42 42 243 243 243
 243 243 339 339 339 205 205 205 205 189 329 329 268 268 268 268 268 39 296 296
 296 277 277 277 277 42 42 42 243 243 243 243 339 339 339 99 99 99 130 130
 329 329 268 268 268 268 268 39 296 296 296 277 277 277 277 42 42 42 42 243
 381 381 44 44 99 99 99 99 130 130 329 329 329 268 268 268 268 39 324 324
 324 324 277 277 42 42 42 42 42 295 381 381 381 44 44 99 99 99 130 130
 217 217 217 217 329 268 56 56 56 324 324 324 324 144 144 42 42 295 295 295
 120 120 120 44 99 99 99 99 99 130 217 217 217 217 260 260 260 56 56 324
 324 324 324 144 144 144 295 295 295 295 120 120 120 120 257 257 99 99 99 217
 217 217 217 217 260 260 260 56 242 242 242 242 228 228 228 228 228 295 295 295
 120 120 120 257 257 257 257 257 99 217 217 217 217 217 260 260 260 242 242 242
 242 242 228 228 228 228 228 228 228 120 120 120 120 257 257 257 257 257 249 249
 249 249 217 217 260 260 260 242 242 242 242 242 228 228 228 228 228 228 228 120
 120 120 223 257 257 257 257 249 249 249 249 249 138 138 138 138 242 242 242 242
 242 242 228 228 228 228 228 228 228 228 120 223 223 223 118 118 118 249 249 249
 249 249 138 138 138 138 138 242 242 242 242 242 228 228 228 228 228 228 228 281
 281 281 281 118 118 118 118 249 249 249 249 249 138 138 138 138 138 242 242 242
 242 242 228 228 228 228 228 228 228 281 281 281 281 281 118 118 118 249 249 249
 140 106 106 138 138 138 138 242 242 242 242 242 228 228 228 228 228 228 281 281
 281 281 281 281 281 281 360 360 164 164 106 106 106 106 106 150 150 150 242 242
 242 327 327 327 327 389 389 228 281 281 281 281 281 281 281 281 360 360 164 164
 106 106 106 106 106 150 150 150 307 307 307 327 327 327 327 327 389 281 281 281
 281 281 281 281 281 281 308 308 164 164 106 106 106 106 106 106 150 307 307 307
 307 327 327 327 327 327 389 389 281 281 281 281 281 281 281 281 308 308 308 308
 106 106 106 106 106 106 316 316 316 307 307 327 327 327 327 327 389 348 273 273
 273 281 281 281 108 108 308 308 308 308 308 106 106 106 106 106 316 316 316 175
 175 327 327 327 327 348 348 348 273 273 273 281 281 281 278 278 278 308 308 308
 308 106 106 106 73 73 73 316 336 336 336 336 344 344 344 348 348 348 348 273
 273 273 278 278 278 278 278 308 308 308 308 106 106 73 73 73 73 336 336 336
 336 336 344 344 344 348 348 348 348 348 348 177 177 177 278 278 278 278 308 308
 218 218 218 73 73 73 73 336 336 336 336 336 344 344 344 348 348 348 348 348
 348 177 177 177 177 278 278 278 135 135 218 218 218 22 22 22 22 22 336 336
 336 336 344 344 344 348 348 348 348 348 348 177 177 177 177 278 278 135 135 135
 218 218 218 22 22 22 22 22 22 336 336 114 114 115 115 115 115 115 66 66
 66 177 177 177 177 177 86 135 135 135 211 211 211 22 22 22 22 22 22 63
 63 114 114 114 115 115 115 115 66 66 66 66 177 177 177 177 161 161 161 161
 211 211 211 22 22 22 22 22 63 63 63 114 114 114 115 115 115 115 66 66
 66 66 177 177 147 147 161 161 161 161 211 211 211 211 22 22 22 63 63 63
 63 63 114 115 115 115 115 115 115 66 66 66 147 147 147 147 147 189 189 189
 189 211 211 211 365 22 63 63 63 63 63 63 115 115 115 115 115 115 115 215
 215 215 147 147 147 147 147 189 189 189 189 189 211 211 365 63 63 63 63 63
 63 63 63 115 115 115 115 115 115 215 215 215 147 147 147 147 147 189 189 189
 189 189 189 365 268 63 63 63 63 63 63 63 63 115 115 115 115 115 243 243
 243 243 243 147 147 147 205 205 189 189 189 189 189 268 268 268 268 63 63 63
 63 63 277 277 277 277 115 243 243 243 243 243 243 339 205 205 205 205 205 189
 189 189 268 268 268 268 268 63 63 63 63 277 277 277 277 277 277 243 243 243
 243 243 243 339 205 205 205 205 205 189 189 268 268 268 268 268 268 39 63 296
 334 277 277 277 277 277 42 169 243 243 243 381 381 381 345 345 99 345 345 189
 31 31 268 268 268 268 268 39 375 375 334 277 277 277 277 277 42 42 169 381
 381 381 381 381 99 99 99 99 130 31 31 31 329 268 268 268 268 375 375 375
 334 334 277 277 277 277 42 42 42 381 381 381 381 381 381 99 99 99 126 31
 31 31 217 260 268 260 260 353 334 334 334 334 334 277 277 277 42 295 295 295
 381 381 381 381 257 99 99 99 126 126 217 217 217 260 260 260 260 260 242 334
 334 334 334 228 228 228 228 295 295 295 120 381 120 257 257 257 257 99 126 126
 217 217 217 260 260 260 260 260 242 242 242 242 228 228 228 228 228 228 295 295
 120 120 120 257 257 257 257 257 126 126 217 217 217 260 260 260 260 260 242 242
 242 242 228 228 228 228 228 228 228 120 120 120 120 257 257 257 257 257 249 249
 249 249 217 260 260 260 260 242 242 242 242 242 228 228 228 228 228 228 228 228
 223 223 223 223 257 257 257 249 249 249 249 249 249 138 138 260 260 242 242 242
 242 242 228 228 228 228 228 228 228 228 223 223 223 223 257 257 257 249 249 249
 249 249 138 138 138 138 242 242 242 242 242 242 228 228 228 228 228 228 228 281
 281 223 223 223 118 118 118 249 249 249 249 249 138 138 138 138 138 242 242 242
 242 242 228 228 228 228 228 228 228 281 281 281 281 281 281 232 118 249 249 249
 164 106 106 106 150 150 150 242 242 242 242 242 327 327 228 228 228 228 281 281
 281 281 281 281 281 281 164 164 164 164 164 106 106 106 150 150 150 150 242 242
 242 327 327 327 327 327 228 228 281 281 281 281 281 281 281 281 164 164 164 164
 106 106 106 106 106 150 150 150 307 307 307 327 327 327 327 327 327 200 281 281
 281 281 281 281 281 291 308 308 164 164 106 106 106 106 106 150 150 150 307 307
 307 327 327 327 327 327 327 348 281 281 281 281 281 281 281 308 308 308 308 308
 308 106 106 106 106 41 316 316 316 307 307 327 327 327 327 327 348 348 273 273
 273 281 281 281 291 308 308 308 308 308 308 106 106 106 41 41 316 316 316 336
 336 327 327 327 327 348 348 348 348 273 273 281 281 154 154 278 308 308 308 308
 308 308 106 106 106 73 316 316 336 336 336 336 327 327 327 348 348 348 348 348
 273 273 154 154 278 278 308 308 308 308 308 308 106 106 73 73 316 336 336 336
 336 336 344 344 344 348 348 348 348 348 348 348 177 177 278 278 278 317 308 308
 308 309 74 74 73 73 73 336 336 336 336 336 344 344 344 348 348 348 348 348
 348 216 177 177 177 278 278 317 317 308 218 74 74 74 74 22 22 336 336 336
 336 336 344 115 348 348 348 348 348 348 348 177 177 177 177 278 278 317 317 308
 74 74 74 74 22 22 22 22 336 336 336 336 115 115 115 115 115 348 348 66
 66 177 177 177 177 177 161 161 161 161 211 211 74 74 22 22 22 22 387 387
 63 115 115 115 115 115 115 115 66 66 66 66 177 177 177 161 161 161 161 161
 211 211 211 22 22 22 22 22 63 63 63 114 115 115 115 115 115 115 115 66
 66 186 186 177 147 147 161 161 161 161 211 211 211 211 22 22 22 63 63 63
 63 63 115 115 115 115 115 115 115 107 107 186 186 147 147 147 161 161 161 161
 189 211 211 211 191 191 191 63 63 63 63 63 115 115 115 115 115 115 115 107
 107 107 186 147 147 147 147 189 189 189 189 189 211 191 191 191 191 63 63 63
 63 63 115 115 115 115 115 115 107 107 107 107 186 147 147 147 147 189 189 189
 189 189 189 191 191 191 191 63 63 63 63 63 111 111 115 115 115 115 107 107
 107 107 107 310 147 147 205 205 189 189 189 189 189 268 268 268 268 63 63 63
 63 63 277 277 277 277 311 311 243 243 243 243 243 310 310 205 205 205 189 189
 168 168 168 268 268 268 268 63 63 63 63 277 277 277 277 277 277 311 243 243
 243 381 381 310 310 345 345 345 345 345 168 168 168 268 268 268 174 334 334 334
 334 277 277 277 277 277 277 169 169 169 381 381 381 381 345 345 345 345 345 345
 31 168 168 268 268 268 174 334 334 375 334 277 277 277 277 277 169 169 169 381
 381 381 381 381 345 345 345 345 345 31 31 31 168 268 353 353 353 334 375 375
 334 334 277 277 277 277 169 169 169 381 381 381 381 381 381 345 345 345 126 31
 31 31 31 353 353 353 353 353 334 334 334 334 334 277 277 199 199 199 199 381
 381 381 381 381 381 99 99 126 126 126 126 126 217 260 260 353 353 353 334 334
 334 334 334 277 228 199 199 199 199 199 381 381 381 257 257 257 257 126 126 126
 126 217 217 260 260 260 260 260 242 242 242 242 242 228 228 228 228 199 199 199
 381 381 223 257 257 257 257 126 126 126 126 217 217 260 260 260 260 260 242 242
 242 242 242 228 228 228 228 228 228 228 223 223 223 257 257 257 257 126 126 126
 249 249 260 260 260 260 260 242 242 242 242 242 242 228 228 228 228 228 228 228
 223 223 223 223 257 257 257 249 249 249 249 249 249 260 260 260 260 242 242 242
 242 242 242 228 228 228 228 228 228 228 223 223 223 223 232 232 257 249 249 249
 249 249 163 163 138 138 242 242 242 242 242 242 242 228 228 228 228 228 228 228
 223 223 223 232 232 232 232 249 249 249 249 249 163 163 138 150 150 242 242 242
 242 242 242 228 228 228 228 228 228 281 281 281 232 232 232 232 232 164 164 164
 164 106 106 106 150 150 150 242 242 242 242 242 327 327 228 228 228 228 281 281
 281 281 281 232 232 232 232 164 164 164 164 106 106 106 150 150 150 150 129 129
 129 327 327 327 327 327 228 206 281 281 281 281 281 281 232 232 164 164 164 164
 106 106 106 106 306 306 306 306 129 129 129 327 327 327 327 327 200 200 200 200
 281 281 281 281 291 291 291 308 164 164 308 106 106 106 41 41 306 306 307 307
 307 327 327 327 327 327 200 200 200 200 281 281 281 291 291 291 291 308 308 308
 308 106 106 41 41 41 41 316 316 307 307 327 327 327 327 327 200 200 200 200
 273 281 281 291 291 291 308 308 308 308 308 308 41 41 41 41 316 316 316 336
 336 327 327 327 327 287 348 348 348 348 273 304 154 154 154 291 308 308 308 308
 308 309 309 41 41 41 316 316 336 336 336 336 60 60 60 348 287 348 348 348
 273 154 154 154 154 154 317 317 308 308 309 309 309 41 41 73 316 336 336 336
 336 336 60 60 60 348 348 348 348 348 348 216 154 154 154 154 317 317 317 308
 309 309 309 74 74 73 336 336 336 336 336 336 60 60 60 348 348 348 348 348
 216 216 212 212 212 317 317 317 317 308 309 74 74 74 74 74 387 387 387 336
 336 336 60 60 57 57 348 348 348 348 216 216 212 212 212 212 317 317 317 308
 74 74 74 74 74 22 387 387 387 387 387 187 187 57 57 57 57 348 348 348
 216 216 212 212 212 212 50 161 161 161 74 74 74 74 74 22 22 387 387 387
 387 187 187 187 57 57 57 115 115 66 186 216 212 212 212 50 161 161 161 161
 211 7 7 7 22 22 22 294 294 387 187 187 187 187 115 115 115 115 115 115
 186 186 186 186 212 161 161 161 161 161 7 7 7 7 7 191 294 294 294 63
 63 187 187 187 115 115 115 115 115 107 186 186 186 186 147 161 161 161 161 161
 189 7 7 7 191 191 191 294 294 63 63 63 187 187 115 115 115 115 107 107
 107 186 186 186 147 147 161 161 161 189 189 7 7 191 191 191 191 191 63 63
 63 63 187 115 115 115 115 115 107 107 107 107 186 186 147 147 147 189 189 189
 189 189 7 191 191 191 191 191 63 63 63 63 111 111 111 115 115 311 107 107
 107 107 107 310 310 310 345 205 189 189 189 168 168 191 268 174 191 63 63 63
 63 111 111 111 111 111 311 311 311 107 107 107 310 310 310 310 345 345 345 345
 168 168 168 166 174 174 174 174 334 63 334 277 277 277 277 277 311 311 311 107
 107 107 310 310 310 310 345 345 345 345 168 168 168 166 174 174 174 334 334 334
 334 277 277 277 277 277 169 169 169 169 169 381 381 310 310 345 345 345 345 345
 168 168 168 166 174 174 174 334 334 334 334 334 277 277 277 277 169 169 169 169
 381 381 381 381 310 345 345 345 345 345 31 31 168 166 353 353 353 334 334 334
 334 334 334 346 346 346 169 169 169 169 381 381 381 381 345 345 345 345 126 126
 126 126 168 353 353 353 353 353 334 334 334 334 334 346 346 199 199 199 199 199
 381 381 381 381 345 345 126 126 126 126 126 126 126 260 353 353 353 353 334 334
 334 334 334 346 346 199 199 199 199 199 381 381 381 354 35 35 126 126 126 126
 126 126 126 260 260 353 353 113 242 242 242 242 242 228 199 199 199 199 199 199
 381 381 354 35 35 35 35 126 126 126 126 126 260 260 260 260 260 113 242 242
 242 242 242 228 228 228 228 228 199 199 223 223 223 272 35 35 35 126 126 126
 313 300 260 260 260 260 260 242 242 242 242 242 242 210 228 228 228 228 228 228
 223 223 223 272 35 35 35 126 126 313 313 249 163 163 80 80 80 242 242 242
 242 242 242 228 228 228 228 228 228 298 223 223 223 232 232 232 35 249 313 313
 313 163 163 163 163 80 242 242 242 242 242 242 242 79 228 228 228 228 298 298
 298 232 232 232 232 232 232 313 313 313 249 163 163 163 163 306 306 242 242 242
 242 242 79 79 79 228 228 228 298 298 298 232 232 232 232 232 232 164 164 164
 164 106 163 163 306 306 306 306 129 129 129 242 79 79 79 228 206 206 206 298
 281 232 232 232 232 232 232 164 164 164 164 106 106 106 306 306 306 306 129 129
 129 129 327 327 327 206 206 206 206 298 281 281 232 232 232 232 164 164 164 164
 40 106 106 306 306 306 306 306 129 129 129 129 327 327 327 200 200 200 200 200
 281 281 281 232 291 291 291 308 308 40 40 106 106 41 41 41 41 306 129 129
 129 129 327 327 327 200 200 200 200 200 200 281 291 291 291 291 291 308 308 308
 308 106 41 41 41 41 41 316 316 307 149 327 327 327 327 200 200 200 200 200
 304 304 291 291 291 291 291 308 308 308 308 308 41 41 41 41 41 316 21 21
 149 149 60 60 327 287 287 287 287 287 304 304 154 154 154 154 308 308 308 308
 308 309 309 41 41 41 41 316 21 21 21 149 60 60 60 287 287 287 287 287
 304 304 154 154 154 154 317 317 308 308 309 309 309 41 41 41 21 21 21 21
 21 60 60 60 60 287 287 287 287 287 304 304 154 154 154 154 317 317 317 308
 309 309 309 74 74 74 387 387 21 21 21 60 60 60 60 287 287 287 287 287
 216 216 212 212 212 317 317 317 317 317 309 74 74 74 74 74 387 387 387 387
 387 60 60 60 60 57 287 287 287 287 216 216 212 212 212 212 317 317 317 317
 74 74 74 74 74 74 387 387 387 387 387 387 60 57 57 57 57 57 287 287
 216 216 212 212 212 50 50 50 50 161 74 74 74 74 74 240 387 387 387 387
 387 187 187 187 57 57 57 57 57 254 254 254 254 212 212 50 50 50 161 161
 7 7 7 7 240 240 294 294 294 387 387 187 187 187 187 57 57 115 115 186
 186 186 186 212 212 50 50 161 161 161 7 7 7 7 240 191 294 294 294 294
 294 187 187 187 187 115 115 115 107 107 186 186 186 186 171 171 171 171 161 161
 7 7 7 7 191 191 191 294 294 294 294 187 187 187 187 115 115 107 107 107
 107 186 186 186 171 171 171 171 171 189 7 7 7 7 191 191 191 294 294 294
 294 187 187 187 115 115 115 107 107 107 107 107 186 352 352 171 171 171 189 189
 189 7 7 191 191 191 191 294 294 294 63 111 111 111 111 115 311 311 107 107
 107 107 107 310 310 310 345 345 345 189 168 168 168 191 174 174 174 294 63 63
 111 111 111 111 111 111 311 311 311 107 107 107 310 310 310 310 345 345 345 345
 168 168 168 166 174 174 174 334 334 334 334 111 111 111 111 111 311 311 311 107
 107 107 310 310 310 310 345 345 345 345 168 168 168 166 174 174 174 334 334 334
 334 334 277 277 277 277 169 169 169 169 169 381 310 310 310 345 345 345 345 345
 168 168 168 166 174 174 174 334 334 334 334 334 346 346 346 346 169 169 169 169
 381 381 381 310 310 345 345 345 345 345 126 168 168 166 353 353 353 334 334 334
 334 334 346 346 346 346 169 169 169 169 381 354 354 354 354 345 345 345 126 126
 126 126 300 353 353 353 353 334 334 334 334 334 346 346 346 346 199 199 199 199
 354 354 354 354 354 345 126 126 126 126 126 300 300 300 353 353 353 353 334 334
 334 334 346 346 346 199 199 199 199 199 354 354 354 354 35 35 126 126 126 126
 126 300 300 300 353 353 353 113 113 334 334 334 346 346 210 199 199 199 199 199
 354 354 354 354 35 35 35 126 126 126 300 300 300 260 260 260 113 113 113 242
 242 242 210 210 210 210 199 199 199 199 272 272 272 272 35 35 35 126 126 126
 313 300 300 260 80 80 113 113 242 242 242 242 210 210 210 210 228 228 298 298
 272 272 272 272 35 35 35 126 313 313 313 163 163 163 80 80 80 242 242 242
 242 242 79 210 210 210 228 298 298 298 298 272 272 272 232 232 302 302 313 313
 313 163 163 163 163 80 80 242 242 242 242 242 79 79 79 79 79 298 298 298
 298 232 232 232 232 232 302 302 313 313 313 163 163 163 163 306 306 242 242 242
 242 79 79 79 79 79 79 298 298 298 298 232 232 232 232 232 302 302 302 164
 164 163 163 163 306 306 306 306 129 129 129 79 79 79 79 79 206 206 206 298
 298 232 232 232 232 232 302 302 164 164 164 106 106 306 306 306 306 306 129 129
 129 129 79 79 79 206 206 206 206 298 298 232 232 232 232 232 302 164 164 164
 40 40 106 306 306 306 306 306 129 129 129 129 79 79 79 200 200 200 200 200
 298 132 132 132 291 291 291 40 40 40 40 40 41 41 41 41 41 306 129 129
 129 149 327 327 327 200 200 200 200 200 298 132 132 132 291 291 291 40 40 40
 40 40 41 41 41 41 41 41 149 149 149 149 149 327 327 200 200 200 200 200
 304 304 132 132 291 291 291 40 40 40 40 40 41 41 41 41 41 316 149 149
 149 149 149 60 327 200 200 200 200 304 304 304 304 154 154 291 308 308 308 308
 309 309 309 41 41 41 41 316 21 149 149 149 149 60 60 287 287 287 287 304
 304 304 315 154 154 154 317 317 317 308 309 309 309 41 41 41 387 387 21 21
 149 149 60 60 60 287 287 287 287 287 304 304 315 315 315 317 317 317 317 308
 309 309 309 74 74 387 387 387 387 21 21 149 60 60 60 287 287 287 287 287
 216 216 315 315 315 317 317 317 317 317 309 74 74 74 74 74 387 387 387 387
 387 387 60 60 60 57 287 287 287 287 216 216 212 212 212 212 50 50 50 50
 74 74 74 74 74 74 387 387 387 387 387 387 60 57 57 57 57 57 287 254
 254 254 254 212 212 50 50 50 50 50 74 74 74 74 240 240 387 387 387 387
 387 387 187 187 57 57 57 57 57 254 254 254 254 254 212 50 50 50 50 50
 7 7 7 240 240 240 294 294 294 387 387 367 187 187 57 57 57 57 254 254
 254 254 254 254 254 50 50 50 50 50 7 7 7 7 240 240 294 294 294 294
 294 367 187 187 187 57 115 115 107 107 186 186 186 254 171 171 171 171 171 161
 7 7 7 7 7 191 294 294 294 294 294 367 187 187 187 115 115 107 107 107
 107 186 186 352 352 171 171 171 171 171 7 7 7 7 191 191 191 294 294 294
 294 367 187 187 187 115 115 107 107 107 107 107 352 352 352 171 171 171 171 51
 7 7 7 14 191 191 191 294 294 321 321 367 111 111 111 111 311 311 107 107
 107 107 352 352 352 310 171 171 345 345 168 168 14 14 14 174 191 294 321 321
 321 111 111 111 111 111 311 311 311 107 107 107 310 310 310 310 345 345 345 345
 168 168 168 14 174 174 174 174 321 321 321 321 111 111 111 111 311 311 311 107
 107 107 310 310 310 54 345 345 345 345 168 168 168 166 174 174 174 334 334 334
 334 346 346 346 346 346 169 169 169 169 169 169 310 310 54 54 345 345 345 345
 168 168 168 168 174 174 174 334 334 334 334 346 346 346 346 346 346 169 169 169
 169 354 354 54 54 54 345 345 345 345 300 300 300 168 353 353 334 334 334 334
 334 346 346 346 346 346 346 169 169 169 354 354 354 354 54 54 345 345 345 126
 300 300 300 300 353 353 353 334 334 334 334 346 346 346 346 346 199 199 199 199
 354 354 354 354 354 69 69 126 126 126 300 300 300 300 353 353 353 334 334 334
 334 346 346 346 346 346 199 199 199 199 354 354 354 354 69 69 69 126 126 126
 300 300 300 300 353 353 353 113 113 334 334 346 346 346 210 199 199 199 199 199
 354 354 354 354 35 35 35 126 126 300 300 300 300 300 260 260 113 113 113 242
 242 242 210 210 210 210 199 199 199 298 272 272 272 272 35 35 35 126 126 300
 319 300 300 300 80 80 113 113 242 242 242 242 210 210 210 210 199 199 298 298
 298 272 272 272 272 35 35 319 319 319 319 319 163 163 80 80 80 242 242 242
 242 79 79 210 210 210 210 298 298 298 298 272 272 272 232 232 302 302 319 319
 319 319 163 163 163 80 80 242 242 242 242 79 79 79 79 79 79 298 298 298
 298 232 232 232 232 232 302 302 302 319 319 163 163 163 163 306 306 242 242 242
 79 79 79 79 79 79 79 298 298 298 298 298 232 232 232 232 302 302 302 302
 319 163 163 163 306 306 306 306 129 129 129 79 79 79 79 79 79 298 298 298
 298 298 232 232 232 232 302 302 302 302 40 163 163 306 306 306 306 306 129 129
 129 79 79 79 79 79 200 206 206 298 298 298 232 232 232 232 302 302 302 40
 40 40 40 306 306 306 306 306 129 129 129 129 79 79 79 200 200 200 200 200
 298 132 132 132 132 132 40 40 40 40 40 40 40 41 41 41 41 306 149 129
 149 149 149 327 327 200 200 200 200 200 132 132 132 132 132 132 40 40 40 40
 40 40 40 41 41 41 41 41 149 149 149 149 149 149 200 200 200 200 200 200
 304 132 132 132 132 132 40 40 40 40 40 40 40 41 41 41 41 149 149 149
 149 149 149 149 341 341 45 45 45 304 304 304 132 132 132 132 40 40 40 40
 40 40 309 41 41 41 41 149 149 149 149 149 149 149 341 341 341 45 45 304
 304 304 315 315 315 315 362 362 362 40 309 309 309 41 41 41 387 387 149 149
 149 149 149 341 341 341 341 287 287 162 304 315 315 315 315 315 317 317 362 362
 309 309 309 74 16 16 387 387 387 387 149 149 246 246 341 341 341 287 287 162
 162 315 315 315 315 315 317 317 317 50 261 261 74 74 16 16 387 387 387 387
 387 387 246 246 246 341 341 287 287 287 254 254 254 315 315 50 50 50 50 50
 261 74 74 74 16 16 387 387 387 387 387 387 367 246 57 57 57 287 287 254
 254 254 254 254 212 50 50 50 50 50 261 7 74 240 240 240 16 387 387 387
 387 367 367 367 57 57 57 57 254 254 254 254 254 254 254 50 50 50 50 50
 7 7 7 240 240 240 16 294 294 387 367 367 367 367 57 57 57 57 254 254
 254 254 254 254 254 50 50 50 50 50 7 7 7 7 240 240 294 294 294 294
 367 367 367 367 187 57 115 269 107 254 254 254 254 254 171 171 171 171 171 51
 7 7 7 7 7 191 294 294 294 294 367 367 367 367 187 115 115 107 107 107
 107 186 352 352 352 171 171 171 171 51 51 7 7 7 7 191 294 294 294 294
 294 367 367 367 187 208 208 208 107 107 107 107 352 352 352 171 171 171 51 51
 51 7 14 14 14 191 294 294 294 321 321 367 367 111 111 208 208 208 208 107
 107 107 352 352 70 70 70 70 51 51 168 168 14 14 14 191 294 294 321 321
 321 367 111 111 111 111 208 208 208 208 107 386 352 70 70 70 70 70 345 345
 168 168 14 14 14 174 174 321 321 321 321 346 346 111 111 111 208 208 208 208
 208 386 386 54 54 54 54 345 345 345 168 168 168 168 174 174 174 334 334 334
 334 346 346 346 346 346 208 208 208 208 208 101 101 54 54 54 54 345 345 345
 168 168 168 168 174 174 334 334 334 334 334 346 346 346 346 346 346 169 169 169
 169 101 101 101 54 54 54 345 345 345 300 300 300 300 353 334 334 334 334 334
 334 346 346 346 346 346 346 169 169 169 354 354 354 354 101 54 345 345 345 126
 300 300 300 300 353 353 334 334 334 334 334 346 346 346 346 346 346 199 199 199
 354 354 354 354 69 69 69 126 300 300 300 300 300 300 300 98 98 98 98 334
 334 346 346 346 346 346 346 199 199 199 158 354 354 354 69 69 69 126 300 300
 300 300 300 300 300 98 98 98 98 98 159 159 159 346 346 346 199 199 199 158
 158 158 354 354 69 69 69 126 300 300 300 300 300 300 300 98 98 98 113 159
 159 159 159 210 210 210 23 199 298 298 158 272 272 272 272 35 35 300 300 300
 319 300 300 300 80 80 156 113 242 242 159 159 210 210 210 210 23 298 298 298
 298 272 272 272 272 35 35 319 319 319 319 319 300 300 80 80 156 156 242 214
 79 79 79 79 210 79 79 298 298 298 298 298 272 272 232 232 302 302 319 319
 319 319 163 163 163 80 156 242 214 214 79 79 79 79 79 79 79 298 298 298
 298 298 232 232 232 302 302 302 302 319 319 319 163 163 163 306 306 214 214 214
 79 79 79 79 79 79 79 298 298 298 298 298 232 232 232 302 302 302 302 302
 319 163 163 163 306 306 306 306 129 129 79 79 79 79 79 79 79 298 298 298
 298 298 232 232 232 302 302 302 302 302 40 40 163 306 306 306 306 306 129 129
 129 79 79 79 79 79 200 200 298 298 298 298 132 132 132 132 302 302 40 40
 40 40 40 383 306 167 167 167 129 129 129 79 79 79 79 200 200 200 200 298
 132 132 132 132 132 132 132 40 40 40 40 40 40 37 37 167 167 167 149 149
 149 149 149 79 79 200 200 200 200 200 132 132 132 132 132 132 132 40 40 40
 40 40 37 37 37 37 167 149 149 149 149 149 149 149 341 45 45 45 45 45
 132 132 132 132 132 132 362 40 40 40 40 40 37 37 37 37 37 149 149 149
 149 149 149 149 341 341 45 45 45 45 162 132 132 132 132 132 362 362 362 40
 40 40 37 37 37 37 37 149 149 149 149 149 149 341 341 341 341 45 45 162
 162 162 315 315 315 362 362 362 362 362 40 40 37 37 37 16 387 387 97 97
 149 149 149 341 341 341 341 341 162 162 162 162 315 315 315 315 362 362 362 362
 261 261 261 16 16 16 387 387 387 387 149 149 246 246 341 341 341 341 162 162
 162 162 315 315 315 315 362 362 362 261 261 261 261 16 16 16 16 387 387 387
 387 246 246 246 246 341 341 341 162 162 254 254 254 315 315 50 50 50 261 261