# vtk DataFile Version 2.0
Data set from ImportExport Version 6.5.141.ec284b7a5
ASCII

DATASET RECTILINEAR_GRID
DIMENSIONS 26 26 26
X_COORDINATES 26 float
-3.000000 3.000000 9.000000 15.000000 21.000000 27.000000 33.000000 39.000000 45.000000 51.000000 57.000000 63.000000 69.000000 75.000000 81.000000 87.000000 93.000000 99.000000 105.000000 111.000000 117.000000 
123.000000 129.000000 135.000000 141.000000 147.000000 
Y_COORDINATES 26 float
-3.000000 3.000000 9.000000 15.000000 21.000000 27.000000 33.000000 39.000000 45.000000 51.000000 57.000000 63.000000 69.000000 75.000000 81.000000 87.000000 93.000000 99.000000 105.000000 111.000000 117.000000 
123.000000 129.000000 135.000000 141.000000 147.000000 
Z_COORDINATES 26 float
-3.000000 3.000000 9.000000 15.000000 21.000000 27.000000 33.000000 39.000000 45.000000 51.000000 57.000000 63.000000 69.000000 75.000000 81.000000 87.000000 93.000000 99.000000 105.000000 111.000000 117.000000 
123.000000 129.000000 135.000000 141.000000 147.000000 
CELL_DATA 15625
SCALARS FeatureIds int 1
LOOKUP_TABLE default
 8 8 30 30 30 30 32 32 32 32 32 56 56 56 56 52 52 52 8 8
 8 8 8 8 8 8 8 30 30 50 50 32 32 32 32 32 56 56 56 56
 52 52 52 52 8 8 8 8 8 8 8 8 8 30 50 50 32 32 32 32
 32 56 56 56 52 52 52 52 52 8 8 8 8 8 8 8 8 8 30 50
 50 32 32 32 32 32 52 52 52 52 52 52 52 52 8 8 8 8 8 8
 8 8 37 37 37 50 32 32 32 32 32 52 52 52 52 52 52 52 52 8
 8 8 8 8 8 37 37 37 37 37 37 37 32 32 95 95 95 52 52 52
 52 52 52 52 90 90 90 90 8 8 37 37 37 37 37 37 37 95 95 95
 95 95 95 52 52 52 52 52 52 90 90 90 90 90 8 37 37 37 37 37
 37 37 95 95 95 95 95 95 52 52 52 52 52 76 90 90 90 90 90 90
 37 37 37 37 37 37 95 95 95 95 95 95 95 20 52 76 76 76 76 76
 90 90 90 90 90 37 37 37 37 37 87 95 95 95 95 95 20 20 20 20
 76 76 76 76 76 76 76 90 90 90 37 37 37 87 87 87 87 95 95 95
 20 20 20 20 20 20 76 76 76 76 76 76 76 76 76 37 37 87 87 87
 87 87 95 95 95 20 20 20 20 20 20 76 76 76 76 76 76 76 76 76
 87 87 87 87 87 87 87 3 3 20 20 20 20 20 20 20 76 76 76 76
 76 76 76 76 76 92 88 88 87 87 3 3 3 3 3 20 20 20 20 20
 20 76 79 79 79 79 79 79 92 92 92 92 92 92 3 3 3 3 3 3
 3 20 20 25 25 25 76 79 79 79 79 79 79 92 92 92 92 92 92 3
 3 3 3 3 3 3 3 25 25 25 25 25 79 79 79 79 79 79 92 92
 92 92 92 92 92 3 3 3 3 3 3 25 25 25 25 25 79 79 79 79
 79 79 79 92 92 92 92 92 92 92 3 3 3 3 3 3 25 25 25 25
 25 79 79 79 79 79 79 79 92 92 92 92 92 92 92 3 3 3 3 3
 3 25 25 25 54 54 67 67 79 79 79 79 36 36 92 92 92 92 92 92
 30 80 80 80 80 80 54 54 54 54 54 67 67 79 79 79 36 36 36 36
 92 92 92 30 30 30 80 80 80 60 60 54 54 54 54 54 67 67 79 79
 79 36 36 36 36 92 30 30 30 30 30 80 80 80 60 60 54 54 54 54
 67 67 67 67 79 79 36 36 36 36 8 30 30 30 30 30 30 80 80 60
 60 60 54 54 54 67 67 68 68 8 8 8 8 8 8 8 30 30 30 30
 30 30 30 30 30 60 60 54 54 54 67 67 68 68 8 8 8 8 8 8
 8 30 30 30 30 30 30 30 32 30 30 30 52 52 52 52 67 68 68 8
 8 8 8 8 8 8 8 8 30 50 50 32 32 32 32 32 56 56 56 56
 52 52 52 8 8 8 8 8 8 8 8 8 8 50 50 50 32 32 32 32
 32 56 56 56 56 52 52 52 52 8 8 8 8 8 8 8 8 8 50 50
 50 32 32 32 32 32 52 56 56 52 52 52 52 52 8 8 8 8 8 8
 8 8 8 50 50 50 32 32 32 32 32 52 52 52 52 52 52 52 52 8
 8 8 8 8 8 8 8 8 37 50 50 32 32 32 32 32 52 52 52 52
 52 52 52 52 8 8 8 8 8 8 8 8 37 37 37 37 32 32 32 32
 32 52 52 52 52 52 52 52 52 90 90 90 90 8 8 37 37 37 37 37
 37 37 95 95 95 95 95 52 52 52 52 52 52 52 90 90 90 90 90 90
 37 37 37 37 37 37 37 95 95 95 95 20 52 52 52 52 52 52 76 90
 90 90 90 90 90 37 37 37 37 37 37 95 95 95 95 20 20 20 52 52
 52 76 76 76 76 90 90 90 90 90 37 37 37 37 37 87 95 95 95 95
 20 20 20 20 20 76 76 76 76 76 76 76 90 90 90 37 37 37 87 87
 87 95 95 95 20 20 20 20 20 20 20 76 76 76 76 76 76 76 76 76
 88 88 88 87 87 87 87 95 95 20 20 20 20 20 20 20 76 76 76 76
 76 76 76 76 76 88 88 88 87 87 3 3 3 3 20 20 20 20 20 20
 20 76 76 76 76 76 76 76 76 92 92 88 88 88 88 3 3 3 3 3
 20 20 20 20 20 20 76 79 79 79 79 79 79 79 92 92 92 88 88 88
 3 3 3 3 3 3 20 20 25 25 25 76 79 79 79 79 79 79 92 92
 92 92 92 92 3 3 3 3 3 3 3 3 25 25 25 25 25 79 79 79
 79 79 79 92 92 92 92 92 92 92 3 3 3 3 3 3 25 25 25 25
 25 79 79 79 79 79 79 79 92 92 92 92 92 92 92 3 3 3 3 3
 3 25 25 25 25 25 79 79 79 79 79 79 36 92 92 92 92 92 92 92
 92 3 3 3 3 3 25 25 25 54 54 79 79 79 79 79 36 36 36 92
 92 92 92 92 92 92 80 80 80 80 80 54 54 54 54 54 67 68 68 68
 68 36 36 36 36 92 92 92 92 30 80 80 80 80 60 60 54 54 54 54
 54 67 68 68 68 68 36 36 36 36 92 92 92 30 30 80 80 80 80 60
 60 60 54 54 54 54 67 68 68 68 68 68 36 36 36 8 30 30 30 30
 30 80 80 80 60 60 60 54 54 54 54 68 68 68 68 68 68 8 8 8
 8 8 30 30 30 30 30 80 80 80 60 60 54 54 52 54 68 68 68 68
 8 8 8 8 8 8 8 30 30 30 30 32 32 32 32 32 32 52 52 52
 52 68 68 68 8 8 8 8 8 8 8 8 8 30 50 50 32 32 32 32
 24 52 52 56 56 52 52 52 8 8 8 8 8 8 8 8 8 8 50 50
 50 32 32 32 32 24 52 52 56 56 52 52 52 52 8 8 8 8 8 8
 8 8 8 50 50 50 32 32 32 32 32 52 52 52 52 52 52 52 52 8
 8 8 8 8 8 8 8 8 50 50 50 32 32 32 32 52 52 52 52 52
 52 52 52 52 8 8 8 8 8 8 8 8 8 8 50 50 32 32 32 32
 52 52 52 52 52 52 52 52 52 8 8 8 8 8 8 8 8 8 37 37
 65 32 32 32 32 52 52 52 52 52 52 52 52 52 90 90 90 90 8 8
 8 8 37 37 37 65 65 95 95 95 52 52 52 52 52 52 52 52 52 90
 90 90 90 90 8 37 37 37 37 37 37 37 95 95 95 95 20 52 52 52
 52 52 52 76 90 90 90 90 90 90 37 37 37 37 37 37 95 95 95 20
 20 20 20 52 52 52 52 76 76 76 90 90 90 90 90 37 37 37 37 37
 87 95 95 95 20 20 20 20 20 52 52 76 76 76 76 76 76 76 90 90
 88 88 37 87 87 87 97 97 97 20 20 20 20 20 20 76 76 76 76 76
 76 76 76 76 76 88 88 88 88 87 88 97 97 97 20 20 20 20 20 20
 20 76 76 76 76 76 76 76 76 76 88 88 88 88 88 88 3 97 3 20
 20 20 20 20 20 76 76 76 76 76 76 76 76 76 92 92 88 88 88 88
 88 3 3 3 3 20 20 20 20 20 76 76 79 79 79 79 79 79 92 92
 92 92 88 88 88 3 3 3 3 3 3 20 20 25 25 25 76 79 79 79
 79 79 79 92 92 92 92 92 92 92 3 3 3 3 3 3 3 25 25 25
 25 25 79 79 79 79 79 79 92 92 92 92 92 92 92 3 3 3 3 3
 3 25 25 25 25 25 79 79 79 79 79 79 92 92 92 92 92 92 92 92
 3 3 3 3 3 3 25 25 25 25 25 79 79 79 79 79 79 36 92 92
 92 92 92 92 92 92 3 3 3 3 3 25 25 25 25 54 54 79 79 79
 79 36 36 36 36 92 92 92 92 92 92 80 80 80 80 54 54 54 54 54
 54 54 68 68 68 68 36 36 36 36 92 92 92 92 92 80 80 80 80 60
 60 54 54 54 54 54 54 68 68 68 68 36 36 36 36 92 92 92 92 30
 80 80 80 80 60 60 54 54 54 54 48 68 68 68 68 68 68 36 36 36
 8 8 30 30 30 80 80 80 80 60 60 48 48 48 48 48 68 68 68 68
 68 68 8 8 8 8 8 30 30 30 30 80 80 80 80 24 24 48 48 52
 52 68 68 68 68 68 8 8 8 8 8 8 8 30 30 30 32 32 32 24
 24 24 52 52 52 52 68 68 68 8 8 8 8 8 8 8 8 8 24 24
 24 24 24 24 24 24 52 52 52 52 52 52 52 8 8 8 8 8 8 8
 8 8 8 24 24 24 24 24 24 24 24 52 52 52 52 52 52 52 52 8
 8 8 8 8 8 8 8 8 24 24 24 24 24 24 24 24 52 52 52 52
 52 52 52 52 51 8 8 8 8 8 8 8 8 24 24 24 24 24 24 24
 52 52 52 52 52 52 52 52 52 51 51 51 8 8 8 8 8 8 8 24
 24 24 24 24 24 52 52 52 52 52 52 52 52 52 51 51 51 8 8 8
 8 8 8 65 65 65 24 24 24 24 52 52 52 52 52 52 52 52 52 51
 51 51 8 8 8 8 8 8 65 65 65 65 65 65 52 52 52 52 52 52
 52 52 52 52 90 90 90 90 8 8 8 37 65 65 65 65 65 65 95 95
 95 52 52 52 52 52 52 52 52 90 90 90 90 90 8 37 37 65 65 65
 65 65 65 95 20 20 20 20 52 52 52 52 6 76 76 76 90 90 90 90
 37 37 88 88 88 65 97 97 95 20 20 20 20 20 52 52 6 76 76 76
 76 76 76 90 90 88 88 88 88 88 88 97 97 97 20 20 20 20 20 20
 6 6 76 76 76 76 76 76 76 76 88 88 88 88 88 88 97 97 97 20
 20 20 20 20 20 76 76 76 76 76 76 76 76 76 76 88 88 88 88 88
 88 97 97 97 20 20 20 20 20 20 76 76 76 76 76 76 76 76 76 92
 92 88 88 88 88 88 3 3 3 3 20 20 20 100 100 100 79 79 79 79
 79 76 76 92 92 92 92 88 88 88 88 3 3 3 3 3 100 100 100 100
 86 86 79 79 79 79 79 92 92 92 92 92 92 92 92 3 3 3 3 3
 3 100 100 25 25 25 86 79 79 79 79 79 92 92 92 92 92 92 92 92
 3 3 3 3 3 3 25 25 25 25 25 86 79 79 79 79 79 92 92 92
 92 92 92 92 92 92 3 3 3 3 3 48 25 25 25 48 48 79 79 79
 79 36 36 92 92 92 92 92 92 92 92 3 3 3 3 48 48 48 48 48
 48 48 79 79 68 36 36 36 36 36 92 92 92 92 92 92 80 80 80 48
 48 48 48 48 48 48 48 68 68 68 68 36 36 36 36 92 92 92 92 92
 80 80 80 80 80 48 48 48 48 48 48 48 68 68 68 68 36 36 36 36
 92 92 92 92 92 80 80 80 80 80 48 48 48 48 48 48 68 68 68 68
 68 68 36 36 36 8 8 92 30 30 80 80 80 80 80 60 48 48 48 48
 48 68 68 68 68 68 68 8 8 8 8 8 8 30 24 24 24 24 24 24
 24 48 48 48 48 48 68 68 68 68 68 8 8 8 8 8 8 8 30 24
 24 24 24 24 24 24 24 52 52 52 52 68 68 68 8 8 8 8 8 8
 8 8 8 24 24 24 24 24 24 24 24 24 52 52 52 52 52 52 8 8
 8 8 8 8 8 8 8 8 24 24 24 24 24 24 24 24 52 52 52 52
 52 52 52 52 51 8 8 8 8 8 8 8 8 24 24 24 24 24 24 24
 24 52 52 52 52 52 52 52 51 51 51 51 8 8 8 8 8 8 24 24
 24 24 24 24 24 24 52 52 52 52 52 52 52 52 51 51 51 51 8 8
 8 8 8 24 24 24 24 24 24 24 52 52 52 52 52 52 52 52 52 51
 51 51 51 8 8 8 8 65 65 65 65 65 24 24 24 52 52 52 52 52
 52 52 52 52 51 51 51 51 8 8 8 8 65 65 65 65 65 65 65 65
 52 52 52 52 52 52 52 52 52 51 51 51 51 8 8 8 65 65 65 65
 65 65 65 65 65 52 52 52 52 52 52 52 52 21 21 70 70 70 8 8
 65 65 65 65 65 65 65 65 65 20 20 20 52 52 52 52 6 6 6 76
 76 70 70 90 90 88 88 65 65 65 65 65 65 97 20 20 20 20 52 52
 6 6 6 6 76 76 76 76 76 76 88 88 88 88 91 91 91 97 97 20
 20 20 20 20 6 6 6 6 6 76 76 76 76 76 76 88 88 88 88 91
 91 91 97 97 20 20 20 100 100 100 6 6 6 6 76 76 76 76 76 92
 88 88 88 88 88 91 91 97 97 100 100 100 100 100 100 100 6 76 76 76
 76 76 59 92 92 92 88 88 88 88 88 3 3 100 100 100 100 100 100 100
 100 86 86 86 79 79 76 92 92 92 92 92 88 88 88 88 3 3 3 100
 100 100 100 100 100 86 86 86 86 79 79 79 92 92 92 92 92 92 92 92
 3 3 3 3 3 100 100 100 100 100 86 86 86 86 79 79 79 92 92 92
 92 92 92 92 92 92 3 3 3 3 100 100 48 48 48 48 86 86 86 79
 79 92 92 92 92 92 92 92 92 92 92 3 3 3 3 48 48 48 48 48
 48 48 86 86 79 79 36 36 92 92 92 92 92 92 92 92 3 3 3 3
 48 48 48 48 48 48 48 86 68 68 36 36 36 36 92 92 92 92 92 92
 35 35 80 80 48 48 48 48 48 48 48 48 68 68 68 68 36 36 36 36
 92 92 92 35 35 35 35 80 80 48 48 48 48 48 48 48 48 68 68 68
 68 36 36 36 36 92 92 35 35 35 35 80 80 80 80 48 48 48 48 48
 48 48 68 68 68 68 36 36 36 36 8 8 35 35 35 24 24 24 24 24
 48 48 48 48 48 48 48 68 68 68 68 8 8 8 8 8 8 8 35 24
 24 24 24 24 24 24 24 48 48 48 48 68 68 68 68 68 8 8 8 8
 8 8 8 8 24 24 24 24 24 24 24 24 52 52 52 52 68 68 68 8
 8 8 8 8 8 8 8 8 24 24 24 24 24 24 24 24 24 52 52 52
 52 52 52 8 8 8 8 8 8 8 8 8 8 24 24 24 24 24 24 24
 24 52 52 52 52 52 52 52 51 51 51 51 8 8 8 8 8 8 24 24
 24 24 24 24 24 24 52 52 52 52 52 52 52 51 51 51 51 51 8 8
 8 8 8 24 24 24 24 24 24 24 24 52 52 52 52 52 52 52 51 51
 51 51 51 51 8 8 8 65 65 65 24 24 24 24 24 52 52 52 52 52
 52 52 52 52 51 51 51 51 51 8 8 8 65 65 65 65 65 65 24 24
 52 52 52 52 52 52 52 52 21 51 51 51 51 51 8 8 65 65 65 65
 65 65 65 65 65 52 52 52 52 52 52 52 21 21 21 51 70 51 51 8
 65 65 65 65 65 65 65 65 65 65 52 52 52 52 52 52 52 21 21 21
 70 70 70 70 8 65 65 65 65 65 65 65 65 65 65 100 100 52 52 52
 6 6 6 6 6 70 70 70 70 70 65 65 65 65 65 65 65 65 65 65
 100 100 100 52 52 6 6 6 6 6 76 76 76 76 76 88 88 88 88 91
 91 91 65 100 100 100 100 100 100 100 6 6 6 6 6 76 76 76 76 76
 88 88 88 88 91 91 91 91 100 100 100 100 100 100 100 100 6 6 6 6
 76 59 59 59 59 88 88 88 88 91 91 91 100 100 100 100 100 100 100 100
 100 6 6 6 59 59 59 59 59 92 92 88 88 88 88 88 3 100 100 100
 100 100 100 100 100 100 86 86 86 99 59 59 59 92 92 92 92 92 88 88
 88 3 100 100 100 100 100 100 100 100 38 86 86 86 99 99 59 92 92 92
 92 92 92 92 92 3 3 3 100 100 100 100 100 100 38 38 86 86 86 99
 99 99 92 92 92 92 92 92 92 92 92 3 3 3 100 100 100 48 48 48
 38 86 86 86 99 99 92 92 92 92 92 92 92 92 92 35 35 3 3 3
 48 48 48 48 48 48 48 86 86 99 92 92 92 92 92 92 92 92 35 35
 35 35 35 3 48 48 48 48 48 48 48 48 86 86 68 36 36 36 36 92
 92 92 35 35 35 35 35 35 35 48 48 48 48 48 48 48 48 68 68 68
 36 36 36 36 36 92 35 35 35 35 35 35 35 80 48 48 48 48 48 48
 48 48 68 68 68 68 36 36 36 36 92 35 35 35 35 35 35 24 24 48
 48 48 48 48 48 48 48 68 68 68 68 68 36 36 36 8 35 35 35 35
 35 24 24 24 24 48 48 48 48 48 48 48 68 68 68 68 8 8 8 8
 8 8 35 35 24 24 24 24 24 24 24 24 48 48 48 48 48 68 68 68
 8 8 8 8 8 8 8 8 24 24 24 24 24 24 24 24 24 52 52 52
 52 52 68 68 8 8 8 8 8 8 8 8 8 73 73 73 24 24 24 24
 24 24 52 52 52 52 52 52 8 8 8 8 8 8 8 8 8 8 73 73
 73 24 24 24 24 24 52 52 52 52 52 52 52 51 51 51 51 8 8 8
 8 8 8 73 73 24 24 24 24 24 24 52 52 52 52 52 52 52 51 51
 51 51 51 8 8 8 8 8 24 24 24 24 24 24 24 24 52 52 52 52
 52 52 52 51 51 51 51 51 51 8 8 8 65 65 65 65 24 24 24 24
 24 52 52 52 52 52 52 52 51 51 51 51 51 51 8 8 65 65 65 65
 65 65 65 65 24 52 52 52 52 52 52 52 21 21 51 51 51 51 51 8
 65 65 65 65 65 65 65 65 65 65 52 52 52 52 52 52 52 21 21 21
 51 51 51 51 8 65 65 65 65 65 65 65 65 65 65 65 52 52 52 52
 52 21 21 21 21 70 70 70 70 70 65 65 65 65 65 65 65 65 65 65
 100 100 52 52 52 6 6 6 6 6 70 70 70 70 70 65 65 65 65 65
 65 65 65 65 100 100 100 100 52 52 6 6 6 6 6 76 70 70 70 70
 23 23 23 23 65 91 65 65 100 100 100 100 100 100 100 6 6 6 6 6
 76 59 59 59 59 5 5 5 5 91 91 91 100 100 100 100 100 100 100 100
 100 6 6 6 6 59 59 59 59 59 5 5 5 5 5 91 91 100 100 100
 100 100 100 100 100 100 6 6 6 59 59 59 59 59 92 92 5 5 5 5
 5 91 100 100 100 100 100 100 100 100 38 38 86 86 99 59 59 59 59 92
 92 92 5 5 5 5 5 100 100 100 100 100 100 100 38 38 38 86 86 99
 99 59 59 92 92 92 92 92 5 5 5 3 100 83 83 100 100 100 100 38
 38 38 86 86 99 99 99 92 92 92 92 92 92 92 35 35 35 3 83 83
 100 100 100 48 38 38 38 86 99 99 99 99 92 92 92 92 92 35 35 35
 35 35 35 83 83 48 48 48 48 48 48 38 86 99 99 99 92 92 92 92
 92 92 35 35 35 35 35 35 83 48 48 48 48 48 48 48 48 86 99 99
 36 36 92 92 92 92 35 35 35 35 35 35 35 35 48 48 48 48 48 48
 48 48 48 68 68 36 36 36 36 92 35 35 35 35 35 35 35 35 35 48
 48 48 48 48 48 48 48 68 68 68 77 77 36 36 92 35 35 35 35 35
 35 35 35 24 48 48 48 48 48 48 48 48 68 68 68 77 77 77 36 36
 35 35 35 35 35 35 24 24 24 24 48 48 48 48 48 48 48 68 68 68
 77 77 77 8 8 8 8 35 35 35 24 24 24 24 24 24 24 48 48 48
 48 48 68 68 68 8 8 8 8 8 8 8 8 35 24 24 24 24 24 24
 24 24 24 52 52 52 52 68 68 8 8 8 8 8 8 8 8 73 73 73
 73 73 24 24 24 24 24 52 52 52 52 28 28 28 8 8 8 8 8 8
 8 8 73 73 73 73 73 24 24 24 24 52 52 52 52 52 28 28 28 51
 51 51 51 8 8 8 8 73 73 73 73 73 24 24 24 24 52 52 52 52
 52 28 28 28 51 51 51 51 51 8 8 8 65 73 73 24 24 24 24 24
 24 52 52 52 52 52 52 28 28 51 51 51 51 51 8 8 65 65 65 65
 65 65 24 24 24 24 52 52 52 52 52 52 28 28 51 51 51 51 51 8
 8 65 65 65 65 65 65 65 65 24 52 52 52 52 52 52 52 21 21 51
 51 51 51 51 51 65 65 65 65 65 65 65 65 65 65 52 52 52 52 52
 52 52 21 21 21 51 51 51 51 51 65 65 65 65 65 65 65 65 65 65
 65 52 52 52 52 52 21 21 21 21 70 70 70 70 70 65 65 65 65 65
 65 65 65 65 65 65 100 52 52 52 6 6 6 6 6 71 70 70 70 70
 23 23 23 65 65 65 65 65 65 100 100 100 100 100 52 6 6 6 6 71
 71 70 70 70 70 23 23 23 23 23 23 23 23 23 100 100 100 100 100 100
 6 6 6 71 71 71 71 59 59 59 5 5 5 5 23 23 23 23 100 100
 100 100 100 100 100 100 6 71 71 71 71 59 59 59 59 5 5 5 5 5
 5 23 100 100 100 100 100 100 100 100 100 71 71 71 71 59 59 59 59 59
 5 5 5 5 5 5 23 100 100 100 100 100 100 100 100 38 38 38 71 99
 99 59 59 59 92 92 5 5 5 5 5 5 100 100 83 100 100 100 100 38
 38 38 38 99 99 99 99 59 92 92 92 92 5 5 5 5 83 83 83 83
 83 100 100 100 38 38 38 38 99 99 99 99 92 92 92 92 92 35 35 35
 35 35 83 83 83 83 100 100 100 38 38 38 38 99 99 99 99 92 92 92
 92 35 35 35 35 35 35 35 83 83 100 48 48 48 48 38 38 38 99 99
 99 99 92 92 92 92 35 35 35 35 35 35 35 83 83 48 48 48 48 48
 48 48 48 99 99 99 99 92 92 92 35 35 35 35 35 35 35 35 84 48
 48 48 48 48 48 48 48 48 68 77 77 36 36 92 92 35 35 35 35 35
 35 35 35 84 48 48 48 48 48 48 48 48 48 68 77 77 77 77 92 92
 35 35 35 35 35 35 35 35 58 58 48 48 48 48 48 48 48 48 68 68
 77 77 77 36 92 35 35 35 35 35 35 35 24 58 58 58 48 48 48 48
 48 48 68 68 77 77 77 77 8 8 8 35 35 35 35 24 24 24 58 58
 58 58 48 48 48 48 48 96 68 77 77 8 8 8 8 8 8 8 35 73
 73 24 24 24 24 24 24 24 52 52 28 28 28 28 8 8 8 8 8 8
 8 8 73 73 73 73 73 24 24 24 58 58 52 52 28 28 28 28 28 28
 8 8 8 8 8 8 41 41 73 73 73 73 24 24 24 24 52 52 52 28
 28 28 28 28 28 51 51 51 8 8 41 41 41 73 73 73 73 24 24 24
 24 52 52 52 28 28 28 28 28 28 51 51 51 51 8 41 41 41 41 41
 73 24 24 24 24 24 52 52 52 28 28 28 28 28 28 51 51 51 51 8
 41 41 41 41 65 65 65 65 24 24 24 52 52 52 52 28 28 28 28 28
 51 51 51 51 12 41 41 65 65 65 65 65 65 65 65 52 52 52 52 52
 28 28 28 28 28 51 51 51 51 51 65 65 65 65 65 65 65 65 65 65
 65 40 40 40 52 52 28 28 21 21 51 51 51 51 51 65 65 65 65 65
 65 65 65 65 65 65 40 40 40 40 52 28 21 21 71 71 71 70 70 70
 23 23 23 23 65 65 23 23 23 23 23 40 40 40 40 52 71 71 71 71
 71 71 71 71 71 23 23 23 23 23 23 23 23 23 23 100 100 100 94 94
 71 71 71 71 71 71 71 71 71 71 23 23 23 23 23 23 23 23 23 100
 100 100 100 94 94 94 71 71 71 71 71 71 71 71 71 23 23 23 23 23
 23 23 23 100 100 100 100 100 94 94 94 71 71 71 71 71 71 71 71 71
 5 5 5 5 5 23 23 100 100 100 100 100 100 100 100 100 71 71 71 71
 71 71 71 71 71 5 5 5 5 5 5 23 100 100 100 100 100 100 100 100
 38 38 71 71 71 71 71 71 71 71 92 5 5 5 5 5 5 100 100 100
 100 100 100 100 38 38 38 38 99 99 99 71 71 92 92 92 5 5 5 5
 5 100 100 83 83 100 100 100 100 38 38 38 38 99 99 99 99 99 92 92
 92 35 35 35 35 35 35 100 83 83 100 100 100 100 38 38 38 38 99 99
 99 99 98 98 92 92 35 35 35 35 35 35 35 83 83 100 100 48 48 38
 38 38 38 99 99 99 98 98 98 92 35 35 35 35 35 35 35 35 83 83
 48 48 48 48 48 48 48 48 99 99 99 98 98 98 92 35 35 35 35 35
 35 35 35 84 84 48 48 48 48 48 48 48 96 96 96 77 77 77 44 44
 35 35 35 35 35 35 35 84 84 84 84 48 48 48 48 48 48 96 96 96
 77 77 77 44 44 44 35 35 35 35 35 35 84 84 84 84 48 48 48 48
 48 48 96 96 96 77 77 77 44 44 44 35 35 35 35 35 35 58 58 58
 58 48 48 48 48 48 96 96 96 96 77 77 77 77 44 44 35 35 35 35
 35 24 58 58 58 58 58 58 48 48 28 96 96 96 96 77 77 8 8 44
 44 8 35 73 73 73 73 24 58 58 58 58 58 58 28 28 28 28 28 96
 8 8 8 8 8 41 41 41 41 73 73 73 24 58 58 58 58 52 28 28
 28 28 28 28 28 28 8 12 12 12 41 41 41 41 73 73 73 24 24 24
 58 58 28 28 28 28 28 28 28 28 28 51 12 12 12 41 41 41 41 41
 73 73 24 24 24 24 28 28 28 28 28 28 28 28 28 28 12 12 12 12
 41 41 41 41 41 41 41 24 24 24 24 52 28 28 28 28 28 28 28 28
 28 12 12 12 12 41 41 41 41 41 41 65 65 24 24 28 28 28 28 28
 28 28 28 28 28 28 12 12 12 12 41 41 41 41 65 65 65 65 65 65
 40 40 40 28 28 28 28 28 28 28 28 51 12 12 12 41 41 65 65 65
 65 65 65 65 65 40 40 40 40 40 28 28 28 28 28 28 51 12 12 12
 65 65 65 65 23 23 23 23 23 23 40 40 40 40 40 40 28 28 71 71
 71 71 71 71 12 23 23 23 23 23 23 23 23 23 23 40 40 40 40 40
 40 71 71 71 71 71 71 71 71 71 23 23 23 23 23 23 23 23 23 23
 100 100 40 94 94 71 71 71 71 71 71 71 71 71 71 23 23 23 23 23
 23 23 23 23 100 100 100 94 94 94 94 71 71 71 71 71 71 71 71 71
 23 23 23 23 23 23 23 23 23 100 100 100 94 94 94 94 71 71 71 71
 71 71 71 71 71 5 5 5 23 23 23 23 23 100 100 100 100 100 94 94
 94 71 71 71 71 71 71 71 71 71 5 5 5 5 5 23 23 100 100 100
 100 100 100 100 100 100 71 71 71 71 71 71 71 71 71 82 5 5 5 5
 5 23 100 100 100 100 100 100 100 100 38 38 71 71 71 71 71 71 71 71
 82 5 5 5 5 35 100 100 100 100 100 100 100 100 38 38 38 38 99 99
 99 99 71 98 98 92 35 35 35 35 35 35 100 100 100 100 100 100 100 38
 38 38 38 99 99 99 99 98 98 98 44 35 35 35 35 35 35 35 100 100
 100 100 100 48 38 38 38 38 99 99 99 98 98 98 98 44 35 35 35 35
 35 35 35 84 84 84 48 48 48 48 48 48 96 96 96 96 96 98 98 44
 44 35 35 35 35 35 35 84 84 84 84 84 48 48 48 48 96 96 96 96
 96 96 44 44 44 44 44 35 35 35 35 35 84 84 84 84 84 48 48 48
 48 96 96 96 96 96 96 44 44 44 44 44 35 35 35 35 35 84 84 84
 84 84 48 48 48 48 96 96 96 96 96 96 44 44 44 44 44 35 35 35
 35 58 58 58 58 58 58 48 48 48 96 96 96 96 96 96 96 44 44 44
 44 44 35 35 35 35 58 58 58 58 58 58 58 28 28 28 96 96 96 96
 96 96 44 44 44 44 44 35 73 73 73 73 58 58 58 58 58 58 28 28
 28 28 28 28 96 96 96 44 44 44 41 41 41 41 41 41 41 24 58 58
 58 58 28 28 28 28 28 28 28 28 28 12 12 12 12 41 41 41 41 41
 41 41 24 24 58 58 28 28 28 28 28 28 28 28 28 28 12 12 12 12
 41 41 41 41 41 41 41 24 24 24 58 28 28 28 28 28 28 28 28 28
 28 12 12 12 12 41 41 41 41 41 41 41 41 24 24 28 28 28 28 28
 28 28 28 28 28 28 12 12 12 12 41 41 41 41 41 41 41 41 41 24
 28 28 28 28 28 28 28 28 28 28 28 12 12 12 12 41 41 41 41 41
 41 65 65 23 23 40 40 40 40 28 28 28 28 28 28 28 12 12 12 12
 41 41 41 41 23 23 23 23 23 23 40 40 40 40 40 40 28 28 28 28
 28 16 12 12 12 41 41 23 23 23 23 23 23 23 23 40 40 40 40 40
 40 28 28 71 71 71 71 71 71 12 17 23 23 23 23 23 23 23 23 23
 40 40 40 40 40 40 71 71 71 71 71 71 71 71 71 23 23 23 23 23
 23 23 23 23 23 40 40 40 40 40 71 71 71 71 71 71 71 71 71 71
 23 23 23 23 23 23 23 23 23 100 100 100 94 94 94 71 71 71 71 71
 71 71 71 71 71 23 23 23 23 23 23 23 23 23 100 100 100 94 94 94
 71 71 71 71 71 71 71 71 71 71 82 82 23 23 23 23 23 23 100 100
 100 100 100 94 94 71 71 71 71 71 71 71 71 71 71 82 82 82 23 23
 23 23 100 100 100 100 100 100 100 100 100 71 71 71 71 71 71 71 71 71
 82 82 82 5 5 23 23 100 100 100 100 29 100 100 100 38 71 71 71 71
 71 71 71 71 71 82 82 82 5 5 35 100 100 100 100 29 29 29 100 100
 38 71 71 71 71 71 71 71 98 44 44 44 35 35 35 35 35 100 100 100
 29 29 29 100 38 38 38 71 99 99 71 71 98 98 44 44 44 44 35 35
 35 35 84 84 84 29 29 29 48 38 38 38 96 96 96 96 98 98 98 44
 44 44 44 35 35 35 35 84 84 84 84 84 48 48 48 48 96 96 96 96
 96 96 44 44 44 44 44 44 35 35 35 84 84 84 84 84 84 84 48 48
 48 96 96 96 96 96 96 44 44 44 44 44 44 35 35 35 84 84 84 84
 84 84 84 48 48 96 96 96 96 96 96 96 44 44 44 44 44 44 44 35
 35 84 84 84 84 84 84 84 84 48 96 96 96 96 96 96 96 44 44 44
 44 44 44 44 35 84 84 84 84 84 84 84 84 84 84 96 96 96 96 96
 96 96 44 44 44 44 44 44 44 35 84 84 58 58 58 58 84 84 84 28
 28 96 96 96 96 96 96 44 44 44 44 44 44 44 73 73 58 58 58 58
 58 58 58 28 28 28 28 28 96 96 96 96 44 44 44 41 41 41 41 41
 41 41 89 58 58 58 58 28 28 28 28 28 28 28 28 28 28 12 12 12
 41 41 41 41 41 41 41 41 24 58 58 28 28 28 28 28 28 28 28 28
 28 12 12 12 12 41 41 41 41 41 41 41 41 41 24 28 28 28 28 28
 28 28 28 28 28 28 12 12 12 12 41 41 41 41 41 41 41 41 41 24
 28 28 28 28 28 28 28 28 28 28 28 12 12 12 12 41 41 41 41 41
 41 41 41 41 24 28 28 28 28 28 28 28 28 28 28 28 12 12 12 12
 41 41 41 41 41 41 41 41 23 23 40 40 40 40 28 28 28 28 28 28
 28 16 12 12 12 41 41 41 41 41 23 23 23 23 93 40 40 40 40 40
 40 28 28 28 28 16 16 16 12 12 17 17 23 23 23 23 23 23 23 23
 40 40 40 40 40 40 28 28 71 71 71 71 16 16 17 17 17 23 23 23
 23 23 23 23 23 40 40 40 40 40 40 71 71 71 71 71 71 71 71 17
 17 17 23 23 23 23 23 23 23 23 40 40 40 40 40 71 71 71 71 71
 71 71 71 71 17 17 17 23 23 23 23 23 23 23 23 100 72 72 72 72
 72 71 71 71 71 71 71 71 71 71 17 23 23 23 23 23 23 23 23 100
 100 72 72 72 72 72 71 71 71 71 71 71 71 71 71 82 82 23 23 23
 23 23 23 100 100 100 72 72 72 72 72 71 71 71 71 71 71 71 71 71
 82 82 82 82 23 23 23 23 100 100 100 100 72 72 72 72 71 71 71 71
 71 71 71 71 71 82 82 82 82 23 23 23 100 100 100 29 29 29 29 72
 71 71 71 71 71 71 71 71 71 71 82 82 82 82 82 35 100 29 29 29
 29 29 29 29 29 71 71 71 66 66 66 71 71 44 44 44 44 44 44 44
 35 35 29 29 29 29 29 29 29 29 38 66 66 66 66 66 66 44 44 44
 44 44 44 44 44 35 35 84 84 29 29 29 29 29 10 10 66 66 66 66
 66 44 44 44 44 44 44 44 44 44 35 84 84 84 84 84 84 84 10 10
 10 96 96 96 96 96 96 44 44 44 44 44 44 44 44 35 84 84 84 84
 84 84 84 84 10 10 96 96 96 96 96 96 44 44 44 44 44 44 44 44
 35 84 84 84 84 84 84 84 84 47 47 96 96 96 96 96 96 44 44 44
 44 44 44 44 44 44 84 84 84 84 84 84 84 84 47 47 96 96 96 96
 96 96 44 44 44 44 44 44 44 44 84 84 84 84 84 84 84 84 84 47
 47 96 96 96 96 96 96 44 44 44 44 44 44 44 89 89 84 84 84 84
 84 84 84 84 28 47 96 96 96 96 96 96 44 44 44 44 44 44 89 89
 89 89 84 84 84 84 84 84 28 28 28 28 28 96 96 96 96 44 44 44
 41 41 41 41 41 89 89 89 89 89 58 28 28 28 28 28 28 28 28 28
 28 28 12 12 12 41 41 41 41 41 41 41 89 89 89 28 28 28 28 28
 28 28 28 28 28 28 12 12 12 12 41 41 41 41 41 41 41 41 41 41
 28 28 28 28 28 28 28 28 28 28 28 12 12 12 12 41 41 41 41 41
 41 41 41 41 93 28 28 28 28 28 28 28 28 28 28 28 12 12 12 12
 41 41 41 41 41 41 41 41 93 93 93 28 28 28 28 28 28 28 28 28
 28 12 12 12 12 41 41 41 41 41 41 41 41 93 93 93 40 40 28 28
 28 28 28 28 28 16 16 16 12 12 41 41 41 41 41 41 23 23 93 93
 93 40 40 40 40 40 28 28 28 28 16 16 16 12 12 17 17 17 23 23
 23 23 23 93 93 93 40 40 40 40 40 28 28 71 71 16 16 16 16 17
 17 17 17 23 23 23 23 23 93 93 40 40 40 40 40 40 71 71 71 71
 71 71 71 71 17 17 17 17 23 23 23 23 23 23 93 40 40 72 72 72
 72 71 71 71 71 71 71 71 71 17 17 17 17 23 23 23 23 23 23 72
 72 72 72 72 72 72 71 71 71 71 71 71 71 71 17 17 17 17 23 23
 23 23 23 69 72 72 72 72 72 72 72 71 71 71 71 71 71 71 71 71
 82 82 82 23 23 23 23 69 69 100 72 72 72 72 72 72 71 71 71 71
 71 71 71 71 71 82 82 82 82 82 23 23 69 69 100 72 72 72 72 72
 72 71 71 71 71 71 71 71 71 71 82 82 82 82 82 82 69 69 69 29
 29 29 29 72 72 72 71 71 66 66 66 71 71 71 71 63 63 63 82 82
 75 2 69 29 29 29 29 29 29 72 72 71 66 66 66 66 66 71 44 44
 63 63 63 44 44 75 2 2 2 29 29 29 29 29 10 10 66 66 66 66
 66 66 44 44 44 44 44 44 44 44 44 2 2 84 84 29 29 29 10 10
 10 10 66 66 66 66 66 44 44 44 44 44 44 44 44 44 84 84 84 84
 84 84 84 10 10 10 10 96 96 96 96 44 44 44 44 44 44 44 44 44
 44 84 84 84 84 84 84 84 10 10 10 10 96 96 96 96 96 44 44 44
 44 44 44 44 44 44 84 84 84 84 84 84 84 47 47 47 47 96 96 96
 96 96 44 44 44 44 44 44 44 44 89 84 84 84 84 84 84 84 47 47
 47 47 96 96 96 96 96 44 44 44 44 44 44 44 89 89 89 84 84 84
 84 84 84 47 47 47 47 96 96 96 96 96 44 44 44 44 44 44 89 89
 89 89 84 84 84 84 84 84 47 47 47 47 96 96 96 96 44 44 44 44
 44 44 44 89 89 89 89 89 84 84 84 84 84 28 28 28 28 28 28 96
 96 44 44 44 44 41 89 89 89 89 89 89 89 89 89 89 28 28 28 28
 28 28 28 28 28 28 28 12 12 12 41 41 41 41 41 89 89 89 89 89
 28 28 28 28 28 28 28 28 28 28 28 28 12 12 12 41 41 41 41 41
 41 41 89 89 89 28 28 28 28 28 28 28 28 28 28 28 12 12 12 12
 41 41 41 41 41 41 41 41 93 93 93 28 28 28 28 28 28 28 28 28
 28 12 12 12 12 41 41 41 41 41 41 41 41 93 93 93 28 28 28 28
 28 28 28 28 28 28 12 12 12 12 41 41 41 41 41 41 41 93 93 93
 93 93 28 28 28 28 28 28 28 28 28 16 16 12 12 17 41 41 41 41
 41 93 93 93 93 93 93 40 40 40 40 28 28 28 28 16 16 16 18 18
 17 17 17 17 23 23 93 93 93 93 93 93 40 40 40 40 28 28 71 71
 71 16 18 18 18 17 17 17 23 23 23 93 93 93 93 93 40 40 40 40
 40 71 71 71 71 71 71 18 18 17 17 17 17 17 23 23 23 93 93 93
 93 72 72 72 72 72 71 71 71 71 71 71 71 18 17 17 17 17 23 23
 23 23 23 69 69 72 72 72 72 72 72 71 71 71 71 71 71 71 71 17
 17 17 17 23 23 23 23 69 69 69 72 72 72 72 72 72 71 71 71 71
 71 71 71 71 17 17 82 82 23 23 23 69 69 69 69 69 72 72 72 72
 72 71 71 71 71 71 71 71 71 71 82 82 82 82 82 69 69 69 69 69
 69 72 72 72 72 72 71 71 71 71 71 71 71 71 71 63 63 63 82 82
 75 69 69 69 69 69 69 72 72 72 72 71 66 66 66 66 71 71 71 63
 63 63 63 82 75 75 2 69 69 69 69 29 29 29 72 72 71 66 66 66
 66 66 71 63 63 63 63 63 44 44 75 2 2 2 69 29 29 29 29 10
 10 66 66 66 66 66 66 44 44 44 44 44 44 44 44 75 2 2 2 2
 29 29 29 10 10 10 10 66 66 66 66 66 44 44 44 44 44 44 44 44
 75 2 2 2 84 84 84 10 10 10 10 10 10 96 96 96 44 44 44 44
 44 44 44 44 44 44 84 84 84 84 84 84 10 10 10 10 10 10 96 96
 96 44 44 44 44 44 44 44 44 44 89 84 84 84 84 84 84 84 47 47
 47 47 96 96 96 96 44 44 44 44 44 44 44 44 89 89 89 84 84 84
 84 84 84 47 47 47 47 47 96 96 96 44 44 44 44 44 44 44 44 89
 89 89 89 84 84 84 84 84 47 47 47 47 96 96 96 96 44 44 44 44
 44 44 44 89 89 89 89 89 84 84 84 84 84 47 47 47 47 96 96 96
 96 44 44 44 44 44 44 89 89 89 89 89 89 89 84 84 84 84 28 28
 28 28 28 28 96 96 44 44 44 44 45 89 89 89 89 89 89 89 89 89
 89 89 28 28 28 28 28 28 28 28 28 28 12 12 45 45 41 89 89 89
 89 89 89 89 89 89 28 28 28 28 28 28 28 28 28 28 28 12 12 12
 41 41 41 41 89 89 89 89 89 89 28 28 28 28 28 28 28 28 28 28
 28 28 12 12 12 41 41 41 41 41 41 89 89 93 93 93 28 28 28 28
 28 28 28 28 28 28 28 12 12 12 41 41 41 41 41 41 41 93 93 93
 93 93 28 28 28 28 28 28 28 28 28 28 12 12 12 41 41 41 41 41
 41 93 93 93 93 93 93 28 28 28 28 28 28 28 28 28 16 18 18 18
 18 17 17 41 41 93 93 93 93 93 93 93 93 40 40 28 28 28 28 28
 15 15 18 18 18 18 17 17 17 23 93 93 93 93 93 93 93 93 40 40
 40 28 28 71 71 15 15 18 18 18 17 17 17 17 23 93 93 93 93 93
 93 93 40 72 72 72 71 71 71 71 71 15 18 18 18 17 17 17 17 23
 23 23 93 93 93 93 93 72 72 72 72 71 71 71 71 71 71 18 18 18
 17 17 17 17 23 23 23 69 69 69 69 72 72 72 72 72 72 71 71 71
 71 71 71 18 17 27 27 27 17 23 69 69 69 69 69 69 72 72 72 72
 72 72 71 71 71 71 71 71 71 17 27 27 27 27 69 69 69 69 69 69
 69 72 72 72 72 72 71 71 71 71 71 71 71 71 71 27 82 82 81 81
 69 69 69 69 69 69 69 72 72 72 72 71 71 71 71 71 71 71 71 71
 63 63 63 81 81 75 69 69 69 69 69 69 69 72 72 72 66 66 66 66
 66 66 71 71 63 63 63 63 81 81 75 2 2 69 69 69 69 69 69 72
 72 66 66 66 66 66 66 66 44 63 63 63 63 81 75 75 2 2 2 69
 69 69 69 10 10 10 66 66 66 66 66 66 44 44 44 44 44 44 44 75
 75 2 2 2 2 69 69 10 10 10 10 10 66 66 66 66 66 44 44 44
 44 44 44 44 75 75 2 2 2 2 19 19 19 10 10 10 10 10 66 66
 66 44 44 44 44 44 44 44 44 44 75 2 2 2 2 19 19 19 10 10
 10 10 10 96 96 96 44 44 44 44 44 44 44 44 44 89 89 89 84 84
 84 19 19 10 10 10 10 10 96 96 96 44 44 44 44 44 44 44 44 89
 89 89 89 84 84 84 84 47 47 47 47 47 47 96 96 96 44 44 44 44
 44 44 44 89 89 89 89 89 89 84 84 84 84 47 47 47 47 47 96 96
 96 44 44 44 44 44 44 89 89 89 89 89 89 89 89 84 84 84 47 47
 47 47 96 96 96 96 44 44 44 44 44 44 89 89 89 89 89 89 89 89
 89 84 84 28 28 28 28 28 28 28 96 44 44 44 44 45 45 89 89 89
 89 89 89 89 89 89 89 28 28 28 28 28 28 28 28 28 28 45 45 45
 45 45 45 89 89 89 89 89 89 89 89 89 28 28 28 28 28 28 28 28
 28 28 12 45 45 9 9 9 89 89 89 89 89 89 89 89 28 28 28 28
 28 28 28 28 28 28 28 12 9 9 9 9 9 89 89 89 89 89 89 93
 93 28 28 28 28 28 28 28 28 28 28 28 12 9 9 9 9 9 9 89
 89 89 93 93 93 93 93 85 85 28 28 28 28 28 28 28 28 18 18 18
 9 9 9 41 41 93 93 93 93 93 93 93 93 85 85 85 28 28 28 28
 15 18 18 18 18 18 9 9 41 93 93 93 93 93 93 93 93 93 85 85
 85 85 28 28 15 15 15 18 18 18 18 17 17 17 93 93 93 93 93 93
 93 93 93 85 85 85 85 85 71 15 15 15 18 18 18 18 17 17 17 93
 93 93 93 93 93 93 93 93 72 72 85 85 71 71 71 15 15 18 18 18
 17 17 17 17 62 23 93 93 93 93 93 93 72 72 72 72 72 71 71 71
 71 43 43 18 18 27 27 27 17 62 62 69 69 69 69 69 69 72 72 72
 72 72 71 71 71 71 71 43 43 43 27 27 27 27 62 69 69 69 69 69