# vtk DataFile Version 2.0
Data set from ImportExport Version 6.5.141.ec284b7a5
ASCII

DATASET RECTILINEAR_GRID
DIMENSIONS 26 26 26
X_COORDINATES 26 float
-3.000000 3.000000 9.000000 15.000000 21.000000 27.000000 33.000000 39.000000 45.000000 51.000000 57.000000 63.000000 69.000000 75.000000 81.000000 87.000000 93.000000 99.000000 105.000000 111.000000 117.000000 
123.000000 129.000000 135.000000 141.000000 147.000000 
Y_COORDINATES 26 float
-3.000000 3.000000 9.000000 15.000000 21.000000 27.000000 33.000000 39.000000 45.000000 51.000000 57.000000 63.000000 69.000000 75.000000 81.000000 87.000000 93.000000 99.000000 105.000000 111.000000 117.000000 
123.000000 129.000000 135.000000 141.000000 147.000000 
Z_COORDINATES 26 float
-3.000000 3.000000 9.000000 15.000000 21.000000 27.000000 33.000000 39.000000 45.000000 51.000000 57.000000 63.000000 69.000000 75.000000 81.000000 87.000000 93.000000 99.000000 105.000000 111.000000 117.000000 
123.000000 129.000000 135.000000 141.000000 147.000000 
CELL_DATA 15625
SCALARS FeatureIds int 1
LOOKUP_TABLE default
 18 18 54 54 54 54 54 15 15 15 15 71 74 74 74 71 71 16 16 16
 18 18 18 18 18 18 18 54 54 54 54 54 52 15 15 71 71 71 74 71
 71 71 16 16 18 18 18 18 18 18 18 18 54 54 54 54 54 81 71 71
 71 71 71 71 71 71 71 71 16 18 18 18 18 18 18 18 18 54 54 54
 62 81 81 81 81 81 71 71 71 71 71 71 71 75 75 75 75 18 18 18
 18 18 54 62 62 62 81 81 81 81 81 81 81 71 71 71 71 75 75 75
 75 75 75 75 18 18 18 62 62 62 62 81 81 81 81 81 81 81 81 71
 71 71 75 75 75 75 75 75 75 18 18 43 43 62 62 62 81 81 81 81
 81 81 81 81 81 81 81 75 75 75 75 75 75 75 75 48 48 48 81 81
 81 81 81 81 81 81 81 81 81 81 81 81 75 75 75 75 75 75 75 75
 48 48 48 81 81 81 81 81 81 81 81 81 81 81 81 81 81 81 75 75
 75 75 75 75 75 48 48 48 48 81 81 81 81 81 81 81 81 81 81 81
 81 81 25 25 25 25 25 25 25 25 48 48 48 81 81 81 81 81 81 81
 81 81 81 81 81 81 81 25 25 25 25 25 25 25 25 48 48 48 81 81
 81 81 81 81 81 81 81 81 81 81 81 33 25 25 25 25 25 25 25 25
 48 48 48 80 80 80 80 80 42 42 81 81 81 81 33 33 33 25 25 25
 25 25 25 25 25 80 80 80 80 80 80 80 80 80 80 80 81 81 33 33
 33 33 51 25 25 25 25 25 25 25 80 80 80 80 80 80 80 80 80 80
 80 80 33 33 33 33 33 33 10 25 25 25 25 25 25 9 9 9 80 80
 80 80 80 80 80 80 37 37 33 33 33 33 33 10 10 25 25 25 25 25
 9 9 9 9 80 80 80 80 80 80 37 37 37 30 33 33 33 10 10 10
 10 10 25 25 25 9 9 9 9 9 80 80 80 80 80 37 37 37 30 30
 30 30 10 10 10 10 10 10 25 25 68 68 68 68 68 80 80 80 80 37
 37 37 30 30 30 30 30 10 10 10 10 10 10 10 10 68 68 68 68 68
 68 80 70 70 15 15 30 30 30 30 30 30 30 10 10 10 10 10 10 10
 68 68 68 68 68 68 70 70 70 15 15 30 30 30 30 30 30 30 10 10
 10 10 10 77 77 77 68 68 68 68 68 70 70 70 15 15 15 30 30 30
 30 30 30 16 16 10 77 77 77 77 77 77 68 68 68 70 70 70 70 15
 15 15 15 30 30 30 16 16 16 16 16 77 77 77 77 77 77 68 3 3
 70 70 70 15 15 15 15 15 74 30 16 16 16 16 16 16 77 77 77 77
 77 77 77 3 3 3 70 70 15 15 15 15 74 74 71 71 16 16 16 16
 16 77 77 77 77 18 54 54 54 54 54 52 52 52 15 71 71 71 71 71
 71 71 16 16 16 18 18 18 18 18 18 54 54 54 54 54 54 52 52 71
 71 71 71 71 71 71 71 16 16 18 18 18 18 18 18 18 18 54 54 54
 54 54 52 71 71 71 71 71 71 71 71 71 71 39 18 18 18 18 18 18
 18 18 54 54 54 62 62 81 81 81 71 71 71 71 71 71 71 71 75 75
 75 75 75 18 18 18 18 54 62 62 62 62 81 81 81 81 81 71 71 71
 71 71 39 75 75 75 75 75 75 18 43 43 43 62 62 62 62 81 81 81
 81 81 81 81 71 71 47 39 75 75 75 75 75 75 75 43 43 43 62 62
 62 81 81 81 81 81 81 81 81 81 81 47 75 75 75 75 75 75 75 75
 48 48 48 62 62 81 81 81 81 81 81 81 81 81 81 81 47 47 75 75
 75 75 75 75 75 48 48 48 43 81 81 81 81 81 81 81 81 81 81 81
 81 47 47 47 75 75 75 75 75 75 48 48 48 43 81 81 81 81 81 81
 81 81 81 81 81 81 67 47 25 25 25 25 25 25 25 48 48 48 43 43
 81 81 81 42 42 81 81 81 81 81 81 67 25 25 25 25 25 25 25 25
 48 48 48 43 43 42 42 42 42 42 42 42 81 81 81 81 33 25 25 25
 25 25 25 25 25 48 48 48 80 80 80 80 42 42 42 42 42 42 42 33
 33 33 25 25 25 25 25 25 25 25 48 48 80 80 80 80 80 80 80 80
 42 42 42 33 33 33 33 33 25 25 25 25 25 25 25 17 80 80 80 80
 80 80 80 80 80 80 80 80 33 33 33 33 33 25 25 25 25 25 25 25
 80 80 80 80 80 80 80 80 80 80 80 37 37 33 33 33 33 33 10 25
 25 25 25 25 25 9 9 9 9 80 80 80 80 80 80 37 37 37 30 33
 33 33 33 10 10 10 25 25 25 25 9 9 9 9 9 80 80 80 80 80
 37 37 37 30 30 30 30 30 10 10 10 10 10 25 25 68 68 68 68 68
 80 80 80 80 37 37 37 30 30 30 30 30 30 10 10 10 10 10 10 10
 68 68 68 68 68 68 80 80 80 30 30 30 30 30 30 30 30 30 10 10
 10 10 10 10 49 68 68 68 68 68 68 70 70 70 15 30 30 30 30 30
 30 30 30 30 10 10 10 10 77 77 77 68 68 68 68 68 70 70 70 15
 15 30 30 30 30 30 30 30 30 16 10 77 77 77 77 77 77 68 68 3
 3 3 52 52 15 15 15 15 30 30 30 30 30 16 16 16 77 77 77 77
 77 77 68 3 3 3 3 52 52 15 15 15 15 30 30 16 16 16 16 16
 16 77 77 77 77 77 77 77 3 3 3 3 52 52 15 15 71 71 71 71
 71 16 16 16 16 16 77 77 77 77 18 54 54 54 54 52 52 52 52 52
 71 71 71 71 71 71 71 39 39 39 39 39 18 18 18 18 54 54 54 54
 54 52 52 52 52 71 71 71 74 71 71 71 39 39 39 39 39 39 18 18
 18 54 54 54 54 54 52 52 52 71 71 71 74 74 74 71 71 39 39 39
 39 39 18 18 18 18 54 54 54 54 62 62 81 81 81 71 71 71 74 74
 71 71 39 39 39 39 75 75 18 18 43 43 43 62 62 62 62 81 81 81
 81 81 71 74 74 71 39 39 39 39 75 75 75 75 75 43 43 43 62 62
 62 62 81 81 81 81 81 81 81 47 47 47 39 39 39 75 75 75 75 75
 43 43 43 62 43 62 81 81 81 81 81 81 81 81 81 47 47 47 39 75
 75 75 75 75 75 43 43 43 43 43 43 81 81 81 81 81 81 81 81 81
 81 47 47 47 75 75 75 75 75 75 43 43 43 43 43 43 81 81 81 81
 81 81 81 81 81 81 47 47 47 47 75 75 75 75 57 48 48 43 43 43
 43 42 42 42 42 42 81 81 81 81 67 67 47 47 47 25 25 25 25 57
 57 48 43 43 43 43 42 42 42 42 42 42 42 81 67 67 67 67 25 25
 25 25 25 25 57 48 48 43 43 43 42 42 42 42 42 42 42 42 42 67
 67 67 67 25 25 25 25 25 25 25 48 48 80 80 80 80 80 42 42 42
 42 42 42 42 33 33 33 33 25 25 25 25 25 25 25 48 48 80 80 80
 80 80 80 80 42 42 42 42 33 33 33 33 33 25 25 25 25 25 25 25
 17 17 80 80 80 80 80 80 80 80 80 80 42 33 33 33 33 33 25 25
 25 25 25 25 25 17 17 80 80 80 80 80 80 80 80 80 80 30 33 33
 33 33 33 10 25 25 25 25 25 25 9 9 9 9 80 80 80 80 80 80
 37 37 37 30 33 33 33 33 10 10 25 25 25 25 25 9 9 9 9 80
 80 80 80 80 80 37 37 37 30 30 30 30 30 10 10 10 10 25 25 25
 68 68 68 68 68 80 80 80 80 80 37 37 30 30 30 30 30 30 30 10
 10 10 10 49 49 68 68 68 68 68 68 80 80 80 30 30 30 30 30 30
 30 30 30 30 10 10 10 49 49 49 68 68 68 68 68 68 52 52 52 30
 30 30 30 30 30 30 30 30 30 30 10 49 49 49 49 28 68 68 68 68
 3 52 52 52 52 30 30 30 30 30 30 30 30 30 30 49 49 49 49 49
 28 28 68 68 3 3 3 52 52 52 30 30 30 30 30 30 30 30 30 16
 85 49 49 77 77 28 28 28 3 3 3 3 52 52 52 52 15 30 30 30
 30 30 30 16 16 85 77 77 77 77 28 28 28 3 3 3 3 52 52 52
 52 71 71 71 71 71 71 16 16 16 39 77 77 77 77 18 54 54 54 3
 52 52 52 52 52 52 71 71 71 71 71 71 39 39 39 39 39 39 39 18
 18 54 54 54 54 52 52 52 52 52 52 71 74 74 74 71 39 39 39 39
 39 39 39 39 39 18 54 54 54 54 52 52 52 52 52 71 74 74 74 74
 71 39 39 39 39 39 39 39 39 39 43 43 54 54 54 43 52 52 52 81
 71 74 74 74 74 71 39 39 39 39 39 39 39 39 39 43 43 43 43 43
 43 43 81 81 81 81 81 71 74 74 47 39 39 39 39 39 39 39 75 75
 43 43 43 43 43 43 43 81 81 81 81 81 81 81 47 47 47 39 39 39
 39 75 75 75 75 43 43 43 43 43 43 43 81 81 81 81 81 81 67 47
 47 47 47 47 39 39 75 75 75 75 43 43 43 43 43 43 43 81 81 81
 81 81 81 81 67 47 47 47 47 47 47 75 75 75 57 57 57 43 43 43
 43 43 42 42 42 42 81 81 67 67 67 47 47 47 47 47 75 75 57 57
 57 57 43 43 43 43 42 42 42 42 42 42 42 67 67 67 67 47 47 47
 47 25 25 57 57 57 57 57 43 43 43 42 42 42 42 42 42 42 67 67
 67 67 67 47 47 25 25 25 57 57 57 57 57 43 43 43 42 42 42 42
 42 42 42 67 67 67 67 67 67 25 25 25 25 25 57 57 57 57 80 80
 80 80 42 42 42 42 42 42 42 67 67 67 67 25 25 25 25 25 25 25
 17 17 80 80 80 80 80 80 80 42 42 42 42 42 33 33 33 33 25 25
 25 25 25 25 25 17 17 80 80 80 80 80 80 80 80 80 80 42 33 33
 33 33 61 61 25 25 25 25 25 25 17 17 17 80 80 80 80 80 80 80
 80 80 30 33 33 33 33 61 61 25 25 25 25 25 25 17 17 9 80 80
 80 80 80 80 80 80 37 30 30 30 33 33 61 61 61 25 25 25 25 25
 28 28 9 80 80 80 80 80 80 80 80 30 30 30 30 30 30 30 61 10
 10 10 25 25 49 28 28 68 68 80 80 80 80 80 80 30 30 30 30 30
 30 30 30 30 10 10 49 49 49 49 28 28 68 68 68 80 80 80 80 80
 30 30 30 30 30 30 30 30 30 30 85 49 49 49 49 28 28 28 68 68
 52 52 52 52 52 30 30 30 30 30 30 30 30 30 85 49 49 49 49 49
 28 28 28 28 52 52 52 52 52 52 30 30 30 30 30 30 30 30 30 85
 49 49 49 49 49 28 28 28 28 3 3 52 52 52 52 52 30 30 30 30
 30 30 30 30 85 85 49 49 49 49 28 28 28 3 3 3 3 52 52 52
 52 52 30 30 30 30 30 30 30 85 85 85 8 8 8 28 28 28 3 3
 3 52 52 52 52 52 71 71 71 71 71 71 71 39 39 39 85 8 8 8
 28 28 54 52 52 52 52 52 52 52 52 71 74 74 74 71 39 39 39 39
 39 39 39 39 39 18 54 54 54 52 52 52 52 52 52 52 71 74 74 74
 71 39 39 39 39 39 39 39 39 39 43 43 54 54 52 52 52 52 52 52
 52 74 74 74 74 39 39 39 39 39 39 39 39 39 39 43 43 43 43 43
 43 52 52 52 52 52 74 74 74 74 39 39 39 39 39 39 39 39 39 39
 43 43 43 43 43 43 43 43 52 81 81 81 71 47 47 47 39 39 39 39
 39 39 39 39 39 43 43 43 43 43 43 43 43 81 81 81 81 47 47 47
 47 47 39 39 39 39 39 39 39 39 43 43 43 43 43 43 43 43 81 81
 81 81 67 67 47 47 47 47 47 47 39 39 39 39 57 43 43 43 43 43
 43 43 43 81 81 81 81 67 67 67 47 47 47 47 47 47 47 47 57 57
 57 57 43 43 43 43 43 42 42 42 42 42 67 67 67 67 47 47 47 47
 47 47 47 57 57 57 57 57 43 43 43 43 42 42 42 42 42 67 67 67
 67 67 47 47 47 47 47 47 57 57 57 57 57 43 43 43 42 42 42 42
 42 42 42 67 67 67 67 67 47 47 47 47 25 57 57 57 57 57 43 43
 43 42 42 42 42 42 42 42 67 67 67 67 67 67 47 25 25 25 57 57
 57 57 57 43 80 80 80 87 42 42 42 42 42 67 67 67 67 67 67 25
 25 25 25 25 57 17 57 17 80 80 80 80 87 80 80 42 42 42 67 67
 61 61 61 61 25 25 25 25 25 25 17 17 17 80 80 80 80 80 80 80
 80 80 42 33 33 61 61 61 61 61 25 25 25 25 25 17 17 17 80 80
 80 80 80 80 80 80 80 80 33 33 61 61 61 61 61 25 25 25 25 17
 17 17 17 80 80 80 80 80 80 80 80 80 30 30 30 61 61 61 61 61
 61 25 25 25 17 28 28 28 80 80 80 80 80 80 80 80 30 30 30 30
 30 30 61 61 61 61 49 49 49 28 28 28 28 28 80 80 80 80 80 80
 30 30 30 30 30 30 30 30 61 85 85 49 49 49 28 28 28 28 28 28
 80 80 80 80 80 30 30 30 30 30 30 30 30 30 85 85 49 49 49 49
 28 28 28 28 28 52 52 52 52 52 30 30 30 30 30 30 30 30 30 85
 85 49 49 49 49 28 28 28 28 28 52 52 52 52 52 52 30 30 30 30
 30 30 30 85 85 85 49 49 49 49 28 28 28 28 3 52 52 52 52 52
 52 30 30 30 30 30 30 30 85 85 85 49 49 49 49 28 28 28 28 3
 3 52 52 52 52 52 52 30 30 30 30 30 30 85 85 85 85 8 8 8
 28 28 28 28 3 3 52 52 52 52 52 52 71 71 71 71 71 39 39 39
 39 85 8 8 8 28 28 28 52 52 52 52 52 52 52 52 52 74 44 44
 44 39 39 39 39 39 39 39 39 39 28 28 28 52 52 52 52 52 52 52
 52 52 74 44 44 44 39 39 39 39 39 39 39 39 39 43 43 43 52 52
 52 52 52 52 52 52 52 74 44 44 44 39 39 39 39 39 39 39 39 39
 43 43 43 43 43 43 52 52 52 52 52 52 74 44 44 39 39 39 39 39
 39 39 39 39 39 43 43 43 43 43 43 43 21 21 21 81 47 47 47 47
 47 39 39 39 39 39 39 39 39 39 43 43 43 43 43 43 43 43 21 21
 81 47 47 47 47 47 47 47 39 39 39 39 39 39 39 43 43 43 43 43
 43 43 43 43 81 81 67 67 67 47 47 47 47 47 47 47 39 39 39 57
 57 43 43 43 43 43 43 43 43 42 42 67 67 67 67 47 47 47 47 47
 47 47 47 57 57 57 57 43 43 43 43 43 42 42 42 42 13 13 67 67
 67 47 47 47 47 47 47 47 57 57 57 57 57 43 43 43 43 42 42 42
 42 13 13 67 67 67 67 47 47 47 47 47 47 57 57 57 57 57 43 43
 43 42 42 42 42 42 42 67 67 67 67 67 67 47 47 47 47 47 57 57
 57 57 57 57 43 43 42 42 42 42 42 42 67 67 67 67 67 67 67 47
 47 47 32 57 57 57 57 57 57 80 80 87 87 42 42 42 42 42 67 67
 67 67 67 67 47 25 25 32 32 57 57 57 57 80 80 80 87 87 87 80
 80 42 42 67 67 67 61 61 61 61 25 25 25 32 32 17 17 17 80 80
 80 80 80 80 80 80 80 80 63 67 61 61 61 61 61 61 25 25 32 17
 17 17 17 80 80 80 80 80 80 80 80 80 80 63 61 61 61 61 61 61
 61 26 25 17 17 17 17 17 80 80 80 80 80 80 80 80 80 30 30 30
 61 61 61 61 61 61 26 49 17 17 28 28 28 28 80 80 80 80 80 80
 80 30 30 30 30 30 61 61 61 61 85 85 49 49 28 28 28 28 28 28
 80 80 80 80 80 80 30 30 30 30 30 30 30 61 85 85 85 49 49 28
 28 28 28 28 28 28 52 52 52 27 27 30 30 30 30 30 30 30 85 85
 85 85 49 49 49 28 28 28 28 28 52 52 52 52 27 27 30 30 30 30
 30 30 30 85 85 85 85 49 49 49 28 28 28 28 28 52 52 52 52 52
 27 30 30 30 30 30 30 30 85 85 85 85 49 49 49 28 28 28 28 28
 52 52 52 52 52 52 52 30 30 30 30 30 85 85 85 85 85 49 49 49
 28 28 28 28 52 52 52 52 52 52 52 52 52 30 30 44 44 85 85 85
 85 85 8 8 8 28 28 28 28 52 52 52 52 52 52 52 52 52 44 44
 44 44 39 39 39 39 85 8 8 8 28 28 28 28 52 52 52 52 52 52
 52 52 44 44 44 44 44 39 39 39 39 39 39 39 39 28 28 28 28 52
 52 52 52 52 52 52 52 44 44 44 44 44 39 39 39 39 39 39 39 39
 28 28 43 43 52 52 52 52 52 52 52 52 44 44 44 44 39 39 39 39
 39 39 39 39 39 43 43 43 43 43 43 52 52 52 52 52 52 44 44 44
 44 39 39 39 39 39 39 39 39 39 43 43 43 43 43 43 43 21 21 21
 21 47 47 47 47 47 47 39 39 39 39 39 39 39 39 43 43 43 43 43
 43 43 21 21 21 21 47 47 47 47 47 47 47 47 39 39 39 39 39 39
 43 43 43 43 43 43 43 43 21 21 67 67 67 67 47 47 47 47 47 47
 47 47 47 47 43 43 43 43 43 43 43 43 43 43 42 67 67 67 67 67
 47 47 47 47 47 47 47 47 47 43 57 57 43 43 43 43 43 43 42 42
 42 13 13 13 67 67 47 47 47 47 47 47 47 57 57 57 57 57 43 43
 43 43 42 42 42 42 13 13 13 67 67 67 47 47 47 47 47 47 57 57
 57 57 57 57 43 43 43 42 42 42 42 13 13 67 67 67 67 67 47 47
 47 47 47 57 57 57 57 57 57 43 43 87 87 42 42 42 42 67 67 67
 67 67 67 67 47 47 47 32 57 57 57 57 57 57 80 80 87 87 87 42
 42 42 67 67 67 67 67 67 67 47 47 32 32 32 32 17 17 17 80 80
 80 87 87 87 80 80 63 63 63 67 67 67 61 61 61 61 32 32 32 32
 17 17 17 17 80 80 80 80 80 80 80 63 63 63 63 61 61 61 61 61
 61 26 32 32 32 17 17 17 80 80 80 80 80 80 80 80 63 63 63 63
 61 61 61 61 61 26 26 26 32 17 17 17 17 80 80 80 80 80 80 80
 80 80 63 63 61 61 61 61 61 61 61 26 26 28 28 28 28 28 28 80
 80 80 80 80 80 80 30 30 30 30 61 61 61 61 61 85 85 85 28 28
 28 28 28 28 28 80 80 80 80 80 27 30 30 30 30 30 30 61 61 85
 85 85 85 28 28 28 28 28 28 28 28 52 52 52 27 27 27 30 30 30
 30 30 34 85 85 85 85 85 49 28 28 28 28 28 28 28 52 52 52 27
 27 27 30 30 30 30 30 34 85 85 85 85 85 49 28 28 28 28 28 28
 52 52 52 52 27 27 27 30 30 30 30 34 34 85 85 85 85 85 49 49
 28 28 28 28 28 52 52 52 52 52 52 52 30 30 30 30 34 85 85 85
 85 85 85 49 49 28 28 28 28 52 52 52 52 52 52 52 52 52 44 44
 44 44 85 85 85 85 85 85 8 8 28 28 28 28 52 52 52 52 52 52
 52 52 44 44 44 44 44 85 85 85 85 85 8 8 8 28 28 28 28 52
 52 52 52 52 52 52 52 44 44 44 44 44 44 39 39 39 39 39 39 14
 28 28 28 7 52 52 52 52 52 52 52 44 44 44 44 44 44 44 39 39
 39 39 39 39 14 7 7 7 7 52 52 52 52 52 52 52 44 44 44 44
 44 44 39 39 39 39 39 39 14 14 43 43 43 43 43 43 21 21 21 21
 52 44 44 44 44 44 44 39 39 39 39 39 39 14 14 43 43 43 43 43
 43 21 21 21 21 21 47 47 47 47 47 47 47 39 39 39 39 39 14 14
 43 43 43 43 43 43 21 21 21 21 21 47 47 47 47 47 47 47 47 47
 47 39 39 39 14 43 43 43 43 43 43 43 21 21 21 67 67 67 67 47
 47 47 47 47 47 47 47 47 47 43 43 43 43 43 43 43 43 21 21 21
 67 67 67 67 67 47 47 47 47 47 47 47 47 47 43 57 57 43 43 43
 43 43 43 42 42 13 13 13 13 67 67 47 47 47 47 47 47 47 57 57
 57 57 57 43 43 43 43 42 42 42 13 13 13 13 67 67 67 47 47 47
 47 47 47 57 57 57 57 57 57 43 43 43 42 42 42 13 13 13 13 67
 67 67 67 47 47 47 47 47 57 57 57 57 57 57 43 43 87 87 42 42
 63 63 67 67 67 67 67 67 67 47 47 47 32 32 57 57 57 57 57 80
 80 87 87 80 80 63 63 63 63 67 67 67 67 67 47 47 32 32 32 32
 32 32 17 80 80 80 80 87 80 80 63 63 63 63 63 67 67 67 67 61
 32 32 32 32 32 17 17 17 17 80 80 80 80 80 80 63 63 63 63 63
 63 61 61 61 61 26 26 32 32 32 17 17 17 80 80 80 80 80 80 80
 63 63 63 63 63 63 61 61 61 61 26 26 26 32 32 17 17 17 80 80
 80 80 80 80 80 63 63 63 63 63 61 61 61 61 61 26 26 26 11 28
 28 28 28 28 80 80 80 80 80 80 63 63 63 63 63 61 61 61 61 34
 85 26 11 11 28 28 28 28 28 28 80 80 56 80 27 27 27 63 30 30
 30 34 34 34 34 85 85 11 11 28 28 28 28 28 28 28 52 56 52 27
 27 27 30 30 30 30 34 34 34 34 85 85 85 11 28 28 28 28 28 28
 28 52 52 52 27 27 27 27 30 30 34 34 34 34 34 85 85 85 85 28
 28 28 28 28 28 28 52 52 52 27 27 27 27 30 30 34 34 34 34 85
 85 85 85 85 28 28 28 28 28 28 52 52 52 52 52 52 27 27 44 44
 44 34 34 34 85 85 85 85 85 28 28 28 28 28 28 52 52 52 52 52
 52 52 44 44 44 44 44 34 34 85 85 85 85 85 28 28 28 28 28 52
 52 52 52 52 52 52 52 44 44 44 44 44 44 34 85 85 85 85 85 28
 28 28 7 7 7 52 52 52 52 52 52 44 44 44 44 44 44 44 44 39
 39 39 39 14 14 7 7 7 7 7 52 52 52 52 52 52 44 44 44 44
 44 44 44 44 39 39 39 39 14 14 7 7 7 7 7 7 52 52 52 52
 44 44 44 44 44 44 44 44 39 39 39 39 14 14 14 14 7 7 7 7
 7 21 21 21 21 44 44 44 44 44 44 44 44 39 39 39 39 14 14 14
 43 43 43 43 43 43 21 21 21 21 21 55 55 55 47 47 47 47 47 47
 39 39 14 14 14 43 43 43 43 43 43 21 21 21 21 21 55 55 55 55
 47 47 47 47 47 47 47 14 14 14 43 43 43 43 43 43 43 21 21 21
 55 55 55 55 55 55 47 47 47 47 47 47 47 47 14 43 43 43 43 43
 43 43 21 21 67 67 67 67 55 55 55 47 47 47 47 47 47 47 47 43
 57 43 43 43 43 43 43 43 42 67 67 67 13 13 67 67 47 47 47 47
 47 47 47 47 57 57 57 57 43 43 43 43 43 42 42 13 13 13 13 67
 67 67 47 47 47 47 47 47 57 57 57 57 57 57 43 43 43 1 1 63
 63 67 13 13 67 67 67 67 47 47 47 47 47 32 57 57 57 57 57 1
 1 87 1 1 63 63 63 63 67 67 67 67 67 67 47 47 47 32 32 32
 57 57 57 79 1 1 87 87 80 63 63 63 63 63 63 67 67 67 67 47
 47 32 32 32 32 32 32 79 79 80 80 80 80 80 63 63 63 63 63 63
 63 67 67 67 47 32 32 32 32 32 17 17 17 17 80 80 80 80 80 63
 63 63 63 63 63 63 63 61 61 61 26 26 32 32 32 17 17 17 80 80
 80 80 80 80 63 63 63 63 63 63 63 63 61 61 61 26 26 26 32 32
 28 28 28 28 80 80 80 80 80 63 63 63 63 63 63 63 61 61 61 4
 4 26 11 11 11 28 28 28 28 28 80 80 80 80 63 63 63 63 63 63
 63 61 61 34 34 34 11 11 11 11 28 28 28 28 28 28 56 56 56 56
 63 63 63 63 63 63 34 34 34 34 34 11 11 11 11 28 28 28 28 28
 28 56 56 56 56 27 27 63 30 30 34 34 34 34 34 34 85 11 11 11
 28 28 28 28 28 28 56 56 56 27 27 27 27 30 30 34 34 34 34 34
 34 85 85 11 11 28 28 28 28 28 28 52 52 52 52 27 27 27 44 34
 34 34 34 34 34 85 85 85 85 28 28 28 28 28 28 28 52 52 52 52
 52 27 44 44 44 34 34 34 34 34 85 85 85 85 28 28 28 28 28 28
 52 52 52 52 52 52 52 44 44 44 44 44 34 34 34 85 85 85 85 28
 28 28 28 28 28 52 52 52 52 52 52 44 44 44 44 44 44 44 34 34
 85 85 85 85 28 7 7 7 7 7 7 52 52 52 52 52 44 44 44 44
 44 44 44 44 44 39 39 14 14 14 7 7 7 7 7 7 7 52 52 52
 52 44 44 44 44 44 44 44 44 39 39 39 14 14 14 7 7 7 7 7
 7 7 52 52 52 29 44 44 44 44 44 44 44 44 39 39 39 14 14 14
 14 7 7 7 7 7 7 21 21 29 29 44 44 44 44 44 44 44 44 47
 47 14 14 14 14 14 7 7 7 7 7 21 21 21 21 29 55 55 55 55
 44 47 47 47 47 47 14 14 14 14 41 43 43 43 43 43 21 21 21 21
 55 55 55 55 55 55 47 47 47 47 47 47 14 14 14 41 43 43 43 43
 43 43 21 21 21 55 55 55 55 55 55 55 47 47 47 47 47 47 14 41
 41 43 43 43 43 43 43 21 83 67 67 67 55 55 55 55 55 47 47 47
 47 47 47 41 41 79 43 43 43 43 43 43 83 83 67 67 67 67 55 55
 55 55 47 47 47 47 47 47 47 79 79 79 79 79 43 43 43 43 1 63
 67 67 67 67 67 67 67 47 47 47 47 47 47 79 79 79 79 79 79 79
 1 1 1 1 63 63 63 67 67 67 67 67 67 47 47 47 47 47 79 79
 79 79 79 79 1 1 1 1 1 63 63 63 63 63 67 67 67 67 67 47
 47 47 32 32 79 79 79 79 79 1 1 1 1 1 63 63 63 63 63 63
 63 67 67 67 47 47 32 32 32 32 79 79 79 79 1 1 1 1 1 63
 63 63 63 63 63 63 63 67 67 4 4 32 32 32 32 79 79 79 1 1
 1 1 1 1 63 63 63 63 63 63 63 63 63 4 4 4 4 4 32 32
 11 17 17 1 1 1 1 1 1 63 63 63 63 63 63 63 63 63 4 4
 4 4 4 4 4 11 28 28 28 80 80 80 80 80 63 63 63 63 63 63
 63 63 63 4 4 4 4 4 4 4 11 28 28 28 28 56 56 56 56 63
 63 63 63 63 63 63 63 4 4 4 4 4 11 11 11 11 28 28 28 28
 56 56 56 56 56 63 63 63 63 63 63 34 34 34 34 34 11 11 11 11
 11 28 28 28 28 56 56 56 56 56 56 63 63 63 63 34 34 34 34 34
 34 34 11 11 11 28 28 28 28 28 28 56 56 56 56 56 27 27 30 34
 34 34 34 34 34 34 34 11 11 11 28 28 28 28 28 28 52 52 52 52
 27 27 27 44 34 34 34 34 34 34 34 85 85 11 28 28 28 28 28 28
 28 52 52 52 52 52 27 44 44 44 34 34 34 34 34 34 85 85 85 28
 28 28 28 28 28 28 52 52 52 52 52 44 44 44 44 44 44 34 34 34
 34 85 85 85 28 28 28 28 7 7 7 52 52 52 52 52 44 44 44 44
 44 44 44 34 34 34 85 85 85 28 7 7 7 7 7 7 7 7 52 52
 44 44 44 44 44 44 44 44 44 44 44 39 14 14 14 7 7 7 7 7
 7 7 52 52 52 44 44 44 44 44 44 44 44 44 44 39 39 14 14 14
 7 7 7 7 7 7 7 7 52 29 29 29 44 44 44 44 44 44 44 44
 39 14 14 14 14 14 7 7 7 7 7 7 7 29 29 29 29 44 44 44
 44 44 44 44 47 47 14 14 14 14 41 41 7 7 7 7 7 83 21 29
 29 84 55 55 55 44 44 47 47 47 47 14 14 14 14 41 41 7 7 7
 43 21 83 21 84 84 55 55 55 55 55 55 47 47 47 47 47 14 41 41
 41 41 41 79 43 43 83 83 83 84 84 55 55 55 55 55 55 47 47 47
 47 47 41 41 41 41 41 79 79 79 43 83 83 83 83 67 67 55 55 55
 55 55 47 47 47 47 47 47 41 41 79 79 79 79 79 79 83 83 83 83
 67 67 55 55 55 55 55 47 47 47 47 47 64 64 79 79 79 79 79 79
 79 1 83 83 83 67 67 67 67 67 67 67 47 47 47 47 47 64 79 79
 79 79 79 79 79 1 1 1 1 63 63 63 63 67 67 67 67 67 47 47
 47 64 64 79 79 79 79 79 79 79 1 1 1 1 63 63 63 63 63 63
 67 67 67 67 47 47 64 64 79 79 79 79 79 79 79 1 1 1 1 1
 63 63 63 63 63 63 67 67 67 47 4 4 79 79 79 79 79 79 79 1
 1 1 1 1 1 63 63 63 63 63 63 63 67 67 4 4 4 4 4 79
 79 79 79 79 1 1 1 1 1 63 63 63 63 63 63 63 63 63 4 4
 4 4 4 4 4 79 79 79 1 1 1 1 1 1 63 63 63 63 63 63
 63 63 63 4 4 4 4 4 4 4 11 28 28 22 1 1 1 1 1 63
 63 63 63 63 63 63 63 4 4 4 4 4 4 4 4 11 28 28 22 22
 82 82 82 82 63 63 63 63 63 63 63 63 4 4 4 4 4 4 11 11
 11 28 28 28 28 82 82 82 82 82 63 63 63 63 63 63 34 34 34 4
 4 4 11 11 11 11 28 28 28 28 82 82 82 82 82 82 63 63 63 63
 34 34 34 34 34 34 34 11 11 11 28 28 28 28 28 82 82 82 82 82
 82 82 63 63 34 34 34 34 34 34 34 34 11 11 11 28 28 28 28 28
 28 82 82 82 82 82 82 44 44 44 34 34 34 34 34 34 34 85 11 11
 28 28 28 28 28 28 82 52 82 82 66 66 44 44 44 34 34 34 34 34
 34 34 85 85 28 28 28 28 7 7 7 52 52 52 52 66 44 44 44 44
 44 44 34 34 34 34 34 85 85 28 28 7 7 7 7 7 7 52 52 52
 44 44 44 44 44 44 44 44 34 34 34 34 85 85 28 7 7 7 7 7
 7 7 7 52 66 66 66 44 44 44 44 44 44 44 44 44 53 14 14 14
 7 7 7 7 7 7 7 7 7 29 29 29 44 44 44 44 44 44 44 44
 44 53 14 14 14 7 7 7 7 7 7 7 7 29 29 29 29 29 44 44
 44 44 44 44 44 44 14 14 14 14 7 7 7 7 7 7 7 7 29 29
 29 29 29 29 44 44 44 44 44 44 44 14 14 14 14 41 41 7 7 7
 7 7 83 29 29 29 84 29 29 44 44 44 44 44 47 47 14 14 14 41
 41 41 7 7 7 7 83 83 83 84 84 84 84 55 55 55 55 47 47 47
 47 47 41 41 41 41 41 79 79 79 83 83 83 83 84 84 84 55 55 55
 55 55 47 47 47 47 47 41 41 41 41 79 79 79 79 79 83 83 83 83
 84 84 55 55 55 55 55 55 47 47 47 47 64 41 41 79 79 79 79 79
 79 83 83 83 83 84 55 55 55 55 55 55 47 47 47 47 64 64 64 79
 79 79 79 79 79 79 83 83 83 83 63 67 55 55 55 55 67 47 47 47
 47 64 64 64 79 79 79 79 79 79 79 1 1 1 63 63 63 63 35 67
 67 67 67 47 47 64 64 64 64 79 79 79 79 79 79 1 1 1 1 1
 63 63 63 63 63 63 67 67 67 47 64 64 64 79 79 79 79 79 79 79
 1 1 1 1 1 63 63 63 63 63 63 63 67 67 4 4 4 79 79 79
 79 79 79 79 1 1 1 1 1 1 63 63 63 63 63 63 63 63 4 4
 4 4 4 79 79 79 79 79 79 1 1 1 1 1 1 63 63 63 63 63
 63 63 63 4 4 4 4 4 4 4 4 79 79 79 1 1 1 1 1 63
 63 63 63 63 63 63 63 4 4 4 4 4 4 4 4 4 22 22 22 22
 1 1 1 1 63 63 63 63 63 63 63 63 4 4 4 4 4 4 4 4
 4 22 22 22 22 82 82 82 82 63 63 63 63 63 63 63 4 4 4 4
 4 4 4 4 4 11 22 22 22 22 82 82 82 82 82 82 63 63 63 63
 63 4 4 4 4 4 4 4 11 11 11 22 22 22 22 82 82 82 82 82
 82 60 60 63 63 34 34 34 34 4 4 4 11 11 11 22 22 22 22 22
 82 82 82 82 82 82 60 60 60 34 34 34 34 34 34 34 34 11 11 11
 28 28 22 22 22 82 82 82 82 82 82 66 66 66 34 34 34 34 34 34
 34 34 34 11 11 28 28 22 22 22 82 82 82 82 82 66 66 66 44 44
 34 34 34 34 34 34 34 34 85 28 28 7 7 7 7 7 7 52 52 66
 66 66 66 44 44 44 44 34 34 34 34 34 85 85 28 7 7 7 7 7
 7 7 52 52 66 66 66 44 44 44 44 44 34 34 34 34 34 85 85 28
 7 7 7 7 7 7 7 7 66 66 66 66 66 44 44 44 44 44 44 44
 53 53 53 53 53 7 7 7 7 7 7 7 29 29 29 29 29 29 44 44
 44 44 44 44 44 53 53 53 53 14 7 7 7 7 7 7 7 29 29 29
 29 29 29 29 44 44 44 44 44 44 53 53 14 14 14 69 69 7 7 7
 7 7 29 29 29 29 29 29 29 29 44 44 44 44 44 53 14 14 14 14
 41 69 7 7 7 7 7 83 29 29 84 84 84 29 29 44 44 44 44 47
 47 14 14 14 41 41 41 7 7 7 83 83 83 83 84 84 84 84 29 55
 55 55 47 47 47 47 64 41 41 41 41 41 79 79 79 83 83 83 83 84
 84 84 84 55 55 55 55 47 47 47 47 64 64 41 41 79 79 79 79 79
 83 83 83 83 83 84 84 84 55 55 55 55 55 47 47 64 64 64 64 64
 79 79 79 79 79 79 83 83 83 83 84 84 55 55 55 55 55 47 47 47
 64 64 64 64 64 79 79 79 79 79 79 83 83 83 83 35 35 35 35 35
 55 67 47 47 64 64 64 64 64 64 79 79 79 79 79 79 79 83 1 1
 35 35 35 35 35 35 67 67 24 64 64 64 64 64 79 79 79 79 79 79
 79 1 1 1 1 63 63 35 35 35 35 67 67 24 24 64 64 64 79 79
 79 79 79 79 79 1 1 1 1 1 63 63 63 35 35 63 63 24 24 24
 4 64 64 79 79 79 79 79 79 79 1 1 1 1 1 63 63 63 63 63
 63 63 63 4 4 4 4 4 79 79 79 79 79 79 79 1 1 1 1 1
 63 63 63 63 63 63 63 63 4 4 4 4 4 4 79 4 79 79 22 22
 1 1 1 1 63 63 63 63 63 63 63 63 4 4 4 4 4 4 4 4
 4 22 22 22 22 22 22 1 1 63 63 63 63 63 86 86 86 4 4 4
 4 4 4 4 4 4 22 22 22 22 22 82 82 82 82 63 63 63 63 86
 86 86 4 4 4 4 4 4 4 4 22 22 22 22 22 22 82 82 82 82
 82 60 63 86 86 86 86 4 4 4 4 4 4 4 4 22 22 22 22 22
 22 82 82 82 82 82 60 60 60 86 86 86 4 4 4 4 4 4 4 4
 22 22 22 22 22 22 82 82 82 82 82 60 60 60 60 34 34 34 34 4
 4 4 4 4 4 22 22 22 22 22 22 82 82 82 82 66 66 66 66 66
 34 34 34 34 34 34 34 34 4 4 22 22 22 22 22 22 82 82 82 66
 66 66 66 66 44 34 34 34 34 34 34 34 34 85 28 28 7 7 7 7
 7 7 82 66 66 66 66 66 66 44 44 34 34 34 34 34 34 85 85 28
 7 7 7 7 7 7 7 7 66 66 66 66 66 44 44 44 44 34 34 34
 34 34 53 53 28 7 7 7 7 7 7 7 7 66 66 66 66 66 66 44
 44 44 44 53 53 53 53 53 53 53 7 7 7 7 7 7 7 29 29 29
 29 29 29 29 29 44 44 44 53 53 53 53 53 53 53 69 69 7 7 7
 7 7 29 29 29 29 29 29 29 29 44 44 44 53 53 53 53 53 53 53
 69 69 69 7 7 7 7 29 29 29 29 29 29 29 29 44 44 44 44 53
 53 53 53 53 14 69 69 69 7 7 7 50 50 50 29 84 84 29 29 29
 29 44 44 38 38 53 53 53 14 41 41 41 69 7 7 83 83 83 83 84
 84 84 84 29 29 55 55 38 38 38 38 64 64 64 41 64 79 79 79 79
 83 83 83 83 83 84 84 84 29 29 55 55 38 38 38 38 64 64 64 64
 64 79 79 79 79 83 83 83 83 83 84 84 84 29 29 55 55 38 38 38
 64 64 64 64 64 64 79 79 79 79 83 83 83 83 12 12 12 12 55 55
 55 55 38 38 64 64 64 64 64 64 79 79 79 79 79 79 83 83 83 12
 12 12 35 35 35 35 35 24 24 64 64 64 64 64 64 79 79 79 79 79
 79 83 83 12 12 12 35 35 35 35 35 35 24 24 24 64 64 64 64 79
 79 79 79 79 79 79 1 1 1 1 63 35 35 35 35 35 35 24 24 24
 24 64 64 64 79 79 79 79 79 79 79 1 1 1 1 63 35 35 35 35
 35 35 24 24 24 24 64 64 79 79 79 79 79 79 79 1 1 1 1 1
 63 63 63 35 35 35 31 31 24 24 4 4 4 79 79 79 79 79 79 79
 1 1 1 1 1 63 63 63 63 63 63 31 31 4 4 4 4 4 4 79
 79 79 79 22 22 1 1 1 1 63 63 63 63 63 63 63 63 4 4 4
 4 4 4 4 4 4 22 22 22 22 22 22 22 59 59 63 63 63 63 86
 86 86 4 4 4 4 4 4 4 4 4 22 22 22 22 22 22 82 59 59
 59 60 60 86 86 86 86 4 4 4 4 4 4 4 4 22 22 22 22 22
 22 22 82 59 59 59 60 60 60 86 86 86 4 4 4 4 4 4 4 4
 22 22 22 22 22 22 22 82 59 59 59 60 60 60 86 86 86 4 4 4
 4 4 4 4 4 22 22 22 22 22 22 22 82 59 59 59 60 60 60 60
 86 86 4 4 4 4 4 4 4 4 22 22 22 22 22 22 22 82 59 66
 66 66 66 66 66 36 34 34 34 4 4 4 4 4 4 22 22 22 22 22
 22 22 82 66 66 66 66 66 66 66 36 34 34 34 34 34 4 4 4 4
 22 22 22 7 7 22 22 66 66 66 66 66 66 66 36 36 36 34 34 34
 53 53 53 53 53 7 7 7 7 7 7 7 66 66 66 66 66 66 66 36
 36 36 36 53 53 53 53 53 53 53 7 7 7 7 7 7 7 29 29 66
 66 66 66 66 66 36 44 53 53 53 53 53 53 53 53 7 7 7 7 7
 7 7 29 29 29 29 29 29 29 29 29 44 53 53 53 53 53 53 53 53
 69 69 7 7 7 7 7 29 29 29 29 29 29 29 29 29 44 53 53 53
 53 53 53 53 53 69 69 69 7 7 2 2 29 29 29 29 29 29 29 29
 29 29 44 53 53 53 53 53 53 53 69 69 69 2 2 2 50 50 50 29
 29 29 29 29 29 29 29 6 6 6 53 53 53 53 41 64 69 79 2 2
 2 50 50 50 50 84 84 29 29 29 29 29 6 38 6 6 64 64 64 64
 64 79 79 79 79 83 83 83 50 50 84 84 84 29 29 29 55 38 38 38
 64 64 64 64 64 64 79 79 79 79 83 83 83 83 12 12 12 84 29 29
 29 55 38 38 38 64 64 64 64 64 64 79 79 79 79 79 83 83 83 12
 12 12 12 12 35 35 55 38 38 64 64 64 64 64 64 79 79 79 79 79
 79 83 83 12 12 12 12 12 35 35 35 35 24 24 64 64 64 64 64 64
 79 79 79 79 79 79 79 83 12 12 12 12 35 35 35 35 35 24 24 24
 64 64 64 64 64 79 79 79 79 79 79 79 83 1 1 63 35 35 35 35
 35 35 24 24 24 24 64 64 64 79 79 79 79 79 79 79 1 1 1 1
 63 35 35 35 35 35 35 24 24 24 24 64 64 79 79 79 79 79 79 79
 79 1 1 1 1 63 35 35 35 35 35 31 31 31 24 24 4 79 79 79
 79 79 79 79 79 79 1 1 1 1 63 63 63 63 63 31 31 31 31 4
 4 4 4 4 79 79 79 79 22 22 22 22 22 5 63 63 63 63 63 31
 31 31 31 4 4 4 4 4 4 4 4 22 22 22 22 22 22 22 59 59
 60 60 60 63 86 86 86 31 4 4 4 4 4 4 4 4 22 22 22 22
 22 22 22 59 59 60 60 60 86 86 86 86 4 4 4 4 4 4 4 4
 22 22 22 22 22 22 22 59 59 59 59 60 60 60 86 86 86 4 4 4
 4 4 4 4 4 22 22 22 22 22 22 22 59 59 59 59 60 60 60 86
 86 86 4 4 4 4 4 4 4 4 22 22 22 22 22 22 22 59 59 59
 60 60 60 60 60 36 86 4 4 4 4 4 4 4 4 22 22 22 22 22
 22 22 59 59 59 66 66 66 66 66 36 36 4 4 4 4 4 4 4 4
 22 22 22 22 22 22 22 59 66 66 66 66 66 66 66 36 36 36 36 53
 4 4 4 4 4 22 22 22 22 22 22 22 66 66 66 66 66 66 66 36
 36 36 36 53 53 53 53 53 53 53 7 7 7 7 7 7 22 66 66 66
 66 66 66 66 36 36 36 36 53 53 53 53 53 53 53 7 7 7 7 7
 7 29 29 29 66 66 66 66 66 66 36 36 53 53 53 53 53 53 53 53
 7 7 7 7 2 2 29 29 29 29 29 29 29 29 29 36 36 53 53 53
 53 53 53 53 53 69 69 2 2 2 2 29 29 29 29 29 29 29 29 29
 29 29 53 53 53 53 53 53 53 53 69 69 2 2 2 2 2 29 29 29
 29 29 29 29 29 29 29 53 53 53 53 53 53 53 53 69 69 2 2 2
 2 2 50 50 29 29 29 29 29 29 29 29 6 6 6 6 53 53 53 53
 64 64 2 2 2 2 2 50 50 50 29 29 29 29 29 29 6 6 6 6
 6 6 53 64 64 64 64 79 2 2 2 83 50 50 50 29 29 29 29 29
 29 6 6 6 6 6 64 64 64 64 64 79 79 79 79 83 83 83 83 12
 12 12 29 29 29 29 78 78 78 78 64 64 64 64 64 64 79 79 79 79
 79 83 83 12 12 12 12 12 58 58 58 78 78 78 64 64 64 64 64 64
 64 79 79 79 79 79 79 83 12 12 12 12 12 58 58 58 24 24 24 64
 64 64 64 64 64 79 79 79 79 79 79 79 83 12 12 12 12 58 58 58
 58 24 24 24 24 24 64 64 64 64 79 79 79 79 79 79 79 83 1 58
 58 58 35 35 58 58 58 24 24 24 24 64 64 64 79 79 79 79 79 79
 79 79 1 1 1 58 58 58 35 58 58 31 31 24 24 24 64 64 79 79
 79 79 79 79 79 79 79 5 5 5 63 58 58 58 58 31 31 31 31 24
 24 64 79 79 79 79 79 79 79 79 79 5 5 5 5 63 63 58 58 31
 31 31 31 31 31 4 4 4 79 79 79 79 79 22 22 22 5 5 5 5
 60 60 65 31 31 31 31 31 31 4 4 4 4 4 4 4 22 22 22 22
 22 22 5 5 5 60 60 60 31 31 31 31 31 31 4 4 4 4 4 4