# vtk DataFile Version 2.0
Data set from IO Version 6.4.197.9a0dee2
ASCII

DATASET RECTILINEAR_GRID
DIMENSIONS 31 31 31
X_COORDINATES 31 float
-4.116666 4.116666 12.349998 20.583330 28.816664 37.049999 45.283329 53.516663 61.749996 69.983322 78.216660 86.449989 94.683319 102.916656 111.149986 119.383324 127.616653 135.849991 144.083313 152.316650 160.549988 
168.783310 177.016647 185.249985 193.483307 201.716644 209.949982 218.183319 226.416641 234.649979 242.883316 
Y_COORDINATES 31 float
-4.116666 4.116666 12.349998 20.583330 28.816664 37.049999 45.283329 53.516663 61.749996 69.983322 78.216660 86.449989 94.683319 102.916656 111.149986 119.383324 127.616653 135.849991 144.083313 152.316650 160.549988 
168.783310 177.016647 185.249985 193.483307 201.716644 209.949982 218.183319 226.416641 234.649979 242.883316 
Z_COORDINATES 31 float
-4.116666 4.116666 12.349998 20.583330 28.816664 37.049999 45.283329 53.516663 61.749996 69.983322 78.216660 86.449989 94.683319 102.916656 111.149986 119.383324 127.616653 135.849991 144.083313 152.316650 160.549988 
168.783310 177.016647 185.249985 193.483307 201.716644 209.949982 218.183319 226.416641 234.649979 242.883316 
CELL_DATA 27000
SCALARS FeatureIds int 1
LOOKUP_TABLE default
 355 320 320 320 320 320 250 250 250 43 43 43 96 96 96 407 335 335 335 87
 87 87 87 182 182 182 182 182 355 355 53 320 320 320 320 320 250 250 250 43
 43 43 96 96 96 96 335 335 335 335 87 87 87 87 182 182 182 53 53 53
 53 53 320 320 320 320 250 250 250 250 43 96 96 96 96 335 335 335 335 335
 335 87 87 87 182 161 53 53 53 53 53 53 320 320 320 362 362 362 362 362
 362 96 96 96 96 335 335 335 335 335 335 335 87 358 161 161 53 53 53 53
 53 53 53 320 362 362 362 362 362 362 252 252 96 96 96 335 335 335 335 335
 335 335 335 161 161 161 53 53 53 53 53 53 53 362 362 362 362 362 362 252
 252 252 220 220 335 335 335 335 335 335 335 335 335 161 161 229 229 229 53 53
 53 53 4 4 4 4 4 362 4 252 252 252 220 318 318 318 335 335 335 335
 335 335 128 128 229 229 229 229 229 229 53 247 4 4 4 4 4 4 4 4
 252 281 318 318 318 318 318 335 335 335 84 84 128 128 128 229 229 229 229 229
 247 247 243 243 4 4 4 4 4 4 281 281 281 318 318 318 318 317 317 84
 84 84 84 128 128 388 229 229 229 229 247 247 243 243 243 4 4 4 4 4
 281 281 281 281 318 318 318 317 317 317 84 84 84 55 55 55 388 388 388 388
 247 247 247 243 243 4 4 4 4 4 4 281 281 281 318 318 317 317 317 317
 84 84 84 55 55 55 55 388 388 195 247 247 247 247 4 4 4 4 4 4
 4 281 281 157 157 157 317 317 317 317 317 317 55 55 55 55 55 55 195 195
 247 247 247 247 247 4 4 4 4 4 95 95 157 157 157 157 157 317 317 317
 317 317 55 55 55 55 55 55 195 195 247 247 247 247 71 71 71 95 95 95
 95 95 95 157 157 157 157 157 317 317 317 317 55 55 55 55 55 55 195 195
 247 230 247 230 71 71 71 95 95 95 95 95 95 166 166 166 166 166 317 317
 317 284 284 284 284 284 397 397 397 397 230 230 230 230 253 253 253 95 95 95
 95 95 95 166 166 166 166 166 267 267 267 284 284 284 284 284 397 397 397 397
 408 408 230 253 253 253 253 253 95 95 95 95 95 166 166 166 166 267 267 267
 267 284 284 284 284 284 284 397 408 408 408 408 408 253 253 253 253 253 95 95
 95 95 95 166 166 166 166 267 267 267 267 284 284 284 284 284 284 38 408 408
 408 408 408 253 253 253 253 253 95 95 95 400 400 400 166 166 267 267 267 267
 267 284 284 284 284 284 38 38 38 408 110 110 110 345 345 345 345 345 400 400
 400 400 400 400 295 295 295 267 267 267 267 284 284 284 284 38 38 38 38 110
 110 110 110 345 345 345 67 67 67 400 400 400 400 384 295 295 295 264 267 267
 302 302 302 284 284 38 38 38 110 110 110 110 110 345 345 67 67 67 67 400
 400 400 400 384 295 295 295 264 264 264 302 302 302 181 181 110 110 110 110 110
 110 110 110 345 67 67 67 67 67 400 400 400 400 384 295 295 264 264 264 264
 302 302 181 181 181 181 110 110 110 110 110 110 10 10 67 67 67 67 67 400
 400 400 400 367 295 264 264 264 264 264 302 181 181 181 181 2 2 2 110 110
 10 10 10 10 10 67 67 67 365 365 365 365 367 367 367 264 264 264 264 264
 264 181 181 181 299 2 2 2 2 2 10 10 10 10 68 68 68 365 365 365
 365 365 367 367 367 264 264 131 131 264 196 196 196 196 2 2 2 2 2 2
 10 10 10 10 296 296 296 365 365 365 365 365 367 367 367 151 151 124 124 124
 87 87 87 87 2 2 2 2 2 2 355 355 320 320 296 296 296 365 301 301
 301 301 367 151 151 151 151 371 124 87 87 87 87 87 182 2 2 2 2 355
 355 355 320 320 296 296 296 296 301 301 301 301 151 151 151 151 151 371 371 87
 87 87 87 87 182 182 182 182 355 355 355 355 320 320 320 320 296 296 301 301
 43 43 43 96 151 407 151 371 199 87 87 87 87 87 182 182 182 182 355 355
 355 355 355 320 320 320 250 250 250 43 43 96 96 96 96 407 407 335 335 87
 87 87 87 182 182 182 182 182 355 355 355 355 320 320 320 250 250 250 250 250
 43 96 96 96 96 96 335 335 335 335 335 87 87 182 182 182 182 182 355 355
 53 53 320 320 320 250 250 250 250 250 96 96 96 96 96 335 335 335 335 335
 335 335 358 358 161 161 161 53 53 53 53 53 320 320 320 362 362 362 362 362
 362 96 96 96 96 335 335 335 335 335 335 335 358 358 161 161 161 53 53 53
 53 53 53 320 362 362 362 362 362 362 252 220 220 220 220 335 335 335 335 335
 335 335 358 161 161 161 161 53 53 53 53 53 53 4 4 362 362 362 362 401
 401 220 220 220 220 220 335 335 335 335 335 335 161 161 161 161 161 229 123 123
 123 123 4 4 4 4 4 4 4 4 252 220 220 220 220 220 335 335 335 335
 335 84 84 117 117 117 117 229 229 229 123 4 4 4 4 4 4 4 4 4
 281 281 220 220 220 220 318 335 335 335 84 84 84 117 117 117 117 229 229 229
 247 247 4 4 4 4 4 4 4 4 281 281 281 220 220 220 60 60 84 84
 84 84 84 84 117 117 117 117 229 229 247 247 243 243 4 4 4 4 4 4
 281 281 281 281 220 220 60 60 60 84 84 84 84 84 55 55 55 388 388 388
 195 247 247 243 4 4 4 4 4 4 281 281 281 281 281 60 60 60 317 84
 84 84 84 55 55 55 55 55 195 195 195 247 247 247 4 4 4 4 4 4
 281 281 281 281 157 157 157 317 317 317 84 84 55 55 55 55 55 55 195 195
 195 247 247 247 71 71 71 4 95 95 95 95 359 157 157 157 157 157 317 317
 317 317 55 55 55 55 55 55 195 195 230 230 230 230 71 71 71 95 95 95
 95 95 95 157 157 157 157 157 317 317 317 138 55 55 55 55 55 55 195 230
 230 230 230 230 71 71 71 95 95 95 95 95 95 95 157 157 157 157 267 267
 267 284 284 284 284 55 55 397 397 230 230 230 230 230 253 253 253 95 95 95
 95 95 95 166 166 166 166 166 267 267 267 284 284 284 284 284 284 397 397 230
 230 230 230 253 253 253 253 95 95 95 95 95 95 95 166 166 166 267 267 267
 267 284 284 284 284 284 284 397 408 230 230 230 230 253 253 253 253 253 95 95
 95 95 95 95 166 166 267 267 267 267 267 284 284 284 284 284 284 38 38 408
 408 230 230 253 253 253 253 253 95 95 95 95 95 295 295 166 267 267 267 267
 267 284 284 284 284 284 38 38 38 38 110 110 343 343 253 253 253 253 95 400
 400 400 400 295 295 295 295 267 267 267 267 284 284 284 284 38 38 38 38 110
 110 110 110 343 345 67 67 67 67 400 400 400 400 295 295 295 295 162 162 162
 302 302 302 284 284 38 38 38 38 110 110 110 110 345 345 67 67 67 67 400
 400 400 400 295 295 295 295 264 162 162 302 298 302 302 299 38 38 110 110 110
 110 110 110 10 67 67 67 67 67 400 400 400 400 295 295 295 264 264 264 264
 302 302 302 302 299 299 299 110 110 110 110 10 10 10 68 67 67 67 365 365
 365 400 400 367 295 264 264 264 264 264 302 302 302 299 299 299 299 110 110 110
 10 10 10 10 68 68 68 365 365 365 365 365 367 367 367 264 264 264 264 264
 196 196 196 299 299 299 299 2 2 110 10 10 10 10 68 68 68 365 365 365
 365 365 367 367 367 367 264 264 264 264 196 196 196 196 299 2 2 2 2 2
 10 10 10 10 68 68 68 365 365 365 365 365 367 367 367 367 371 371 371 371
 196 196 196 196 186 2 2 2 2 2 355 355 355 355 68 68 68 365 365 365
 365 365 367 367 151 151 371 371 371 371 87 87 87 87 182 182 2 2 2 355
 355 355 355 355 296 296 296 296 301 301 301 301 367 151 407 407 371 371 371 87
 87 87 87 87 182 182 182 182 355 355 355 355 355 320 320 320 296 296 301 301
 43 43 96 96 407 407 407 371 199 87 87 87 87 182 182 182 182 182 355 355
 355 355 355 320 320 320 250 250 250 300 300 96 96 96 96 407 407 335 335 87
 358 358 358 358 182 182 182 182 355 355 355 355 355 320 320 250 250 250 250 300
 300 96 96 96 96 96 335 335 335 335 358 358 358 358 358 182 182 182 355 355
 53 355 355 320 320 250 250 250 250 300 300 300 96 96 96 96 335 335 335 335
 335 358 358 358 161 161 161 53 53 53 123 123 355 59 59 59 362 362 362 401
 300 300 96 96 96 335 335 335 335 335 335 358 358 358 161 161 161 161 53 123
 123 123 123 59 59 59 362 362 401 401 401 220 220 220 220 220 335 335 335 335
 335 335 358 161 161 161 161 123 123 123 123 123 123 4 4 4 4 4 401 401
 401 220 220 220 220 220 335 335 335 335 335 70 161 161 161 161 161 123 123 123
 123 123 123 4 4 4 4 4 401 401 401 220 220 220 220 220 220 335 335 335
 70 70 70 117 117 117 117 117 123 123 123 123 4 4 4 4 4 4 4 4
 281 281 220 220 220 220 220 60 60 70 84 84 117 117 117 117 117 117 117 123
 139 139 139 4 4 4 4 4 4 4 281 281 281 220 220 220 60 60 60 84
 84 84 84 117 117 117 117 117 117 117 139 139 139 4 4 4 4 4 4 281
 281 281 281 281 220 60 60 60 60 84 84 84 84 117 117 117 117 117 117 117
 195 270 139 4 4 4 4 4 4 4 281 281 281 281 281 60 60 60 60 84
 84 84 84 55 55 55 55 55 195 195 195 270 270 270 4 4 4 4 4 359
 359 359 281 281 157 157 60 60 60 84 84 84 55 55 55 55 55 55 195 195
 195 270 247 71 71 71 71 95 95 359 359 359 359 359 157 157 157 157 317 138
 138 138 55 55 55 55 55 55 195 195 230 230 230 230 71 71 71 95 95 95
 359 359 359 359 157 157 157 157 317 138 138 138 138 55 55 55 55 55 195 230
 230 230 230 230 71 71 71 95 95 95 95 95 95 95 157 157 157 157 267 267
 267 284 284 284 284 55 55 55 230 230 230 230 230 230 253 253 95 95 95 95
 95 95 95 95 166 166 166 267 267 267 267 284 284 284 284 284 284 284 230 230
 230 230 230 230 253 253 253 95 95 95 95 95 95 95 166 166 267 267 267 267
 267 284 284 284 284 284 284 284 230 230 230 230 230 253 253 253 253 95 95 95
 95 95 95 95 95 166 267 267 267 267 267 284 284 284 284 284 284 38 38 408
 230 230 343 343 253 253 253 95 95 95 95 95 95 95 258 258 267 267 267 267
 267 284 284 284 284 284 38 38 38 38 110 343 343 343 343 16 16 16 95 95
 400 400 400 295 295 295 258 162 162 267 267 284 284 284 284 284 38 38 38 38
 110 110 343 343 343 16 16 67 67 400 400 400 400 295 295 295 295 162 162 162
 302 302 302 284 284 38 38 38 38 110 110 110 110 343 343 67 67 67 67 400
 400 400 400 295 295 295 264 162 162 162 302 302 302 302 299 299 299 110 110 110
 110 110 110 10 68 67 67 67 67 400 400 400 400 295 295 295 264 264 264 162
 302 302 302 299 299 299 299 299 110 110 110 10 10 10 68 68 68 68 365 365
 365 400 367 367 295 264 264 264 264 264 196 196 196 299 299 299 299 299 110 110
 10 10 10 10 68 68 68 68 365 365 365 365 367 367 367 264 264 264 264 264
 196 196 196 299 299 299 299 299 2 110 10 10 10 10 68 68 68 68 365 365
 365 365 367 367 367 367 264 264 264 196 196 196 196 196 186 186 186 186 2 2
 10 10 10 68 68 68 68 68 365 365 365 365 367 367 367 367 371 371 371 196
 196 196 196 196 186 186 186 186 2 355 355 355 355 68 68 68 68 68 365 365
 365 365 367 367 151 151 371 371 371 371 196 196 196 216 186 186 186 186 355 355
 355 355 355 355 68 68 68 68 365 365 365 96 96 96 407 407 371 371 371 87
 87 87 87 216 182 182 182 182 355 355 355 355 355 355 355 68 68 68 365 365
 43 96 96 96 407 407 407 371 371 87 87 358 358 216 182 182 182 182 355 355
 355 355 355 355 194 194 194 250 300 300 300 300 96 96 96 239 239 335 335 358
 358 358 358 358 216 216 216 216 355 355 337 337 355 355 194 194 250 250 300 300
 300 300 96 96 96 96 335 335 335 335 358 358 358 358 358 216 216 216 337 337
 337 337 355 355 59 59 59 300 300 300 300 300 300 96 96 96 335 335 335 335
 358 358 358 358 358 161 161 374 374 337 123 123 123 59 59 59 59 300 300 300
 300 300 300 220 220 220 335 335 335 335 335 358 358 358 161 161 161 374 123 123
 123 123 123 59 59 59 59 401 401 401 401 21 220 220 220 220 220 63 63 63
 63 358 358 161 161 161 161 161 123 123 123 123 123 59 59 59 59 401 401 401
 401 21 220 220 220 220 220 63 63 70 70 70 70 161 161 161 161 123 123 123
 123 123 123 59 59 59 4 4 401 401 401 220 220 220 220 220 220 220 70 70
 70 70 70 161 161 117 117 117 123 123 123 123 139 4 4 4 4 4 4 401
 281 220 220 220 220 220 220 220 70 70 70 70 70 117 117 117 117 117 117 123
 139 139 139 139 4 4 4 4 4 281 281 281 281 220 220 220 60 60 60 60
 84 84 346 346 117 117 117 117 117 123 139 139 139 139 4 4 4 4 4 281
 281 281 281 281 220 60 60 60 60 60 84 84 346 346 117 117 117 117 117 139
 139 270 139 139 4 4 4 4 4 281 281 281 281 281 220 60 60 60 60 60
 84 84 346 346 55 55 117 117 117 139 270 270 270 139 71 71 4 4 4 359
 359 359 281 281 83 83 83 60 60 146 138 138 138 55 55 55 55 55 195 283
 270 270 270 71 71 71 71 95 95 359 359 359 359 359 83 83 83 83 83 138
 138 138 138 138 55 55 55 55 283 283 230 230 230 71 71 71 71 95 95 359
 359 359 359 359 83 83 83 83 83 138 138 138 138 138 55 55 55 55 283 283
 230 230 230 230 71 71 71 95 95 95 95 95 95 277 83 83 83 83 83 138
 138 138 138 138 284 55 55 55 230 230 230 230 230 230 230 71 95 95 95 95
 95 95 95 277 277 83 29 29 29 267 138 138 138 284 284 284 284 230 230 230
 230 230 230 230 230 253 95 95 95 95 95 95 95 277 277 277 29 29 267 267
 267 284 284 284 284 284 284 261 261 230 230 230 230 230 253 253 16 95 95 95
 95 95 95 277 277 258 258 267 267 267 267 284 284 284 284 284 284 38 261 261
 261 159 343 343 343 16 16 16 95 95 95 95 95 258 258 258 258 267 267 267
 56 284 284 284 284 284 38 38 261 261 100 100 343 343 343 16 16 16 95 324
 324 95 95 258 258 258 258 258 162 267 56 284 284 284 284 284 38 38 38 38
 100 100 343 343 343 16 16 16 324 324 324 324 324 258 258 258 258 162 162 162
 302 302 284 284 259 259 259 38 38 100 100 100 100 343 16 16 16 324 324 324
 324 324 324 295 295 258 264 162 162 162 302 302 302 259 259 259 259 259 110 110
 100 100 100 100 68 68 178 178 324 324 324 324 324 372 295 295 264 264 264 162
 302 302 302 299 299 299 299 299 110 110 100 100 100 68 68 68 68 178 324 324
 324 324 256 256 256 264 264 264 264 264 196 196 196 299 299 299 299 299 299 110
 380 380 10 68 68 68 68 68 365 365 365 256 256 256 256 264 264 264 264 196
 196 196 196 299 299 299 299 299 299 110 380 380 10 68 68 68 68 68 365 365
 365 365 256 256 256 256 264 264 264 196 196 196 196 186 186 186 186 186 186 186
 380 10 10 68 68 68 68 68 365 365 365 256 256 256 256 256 371 371 371 196
 196 196 196 186 186 186 186 186 186 355 355 355 355 68 68 68 68 68 365 365
 169 256 256 256 256 239 371 371 371 196 196 196 196 216 186 186 186 186 186 355
 355 355 355 355 68 68 68 68 365 365 169 96 96 96 239 239 239 371 371 196
 196 196 216 216 216 216 216 186 355 355 355 355 355 355 194 68 194 194 365 300
 300 96 96 96 239 239 239 239 371 87 358 358 358 216 216 216 216 376 376 355
 337 337 337 337 194 194 194 194 300 300 300 300 213 213 239 239 239 239 51 328
 328 358 358 216 216 216 216 376 376 337 337 337 337 337 194 194 194 300 300 300
 300 300 213 213 213 239 239 63 51 51 328 358 358 358 358 216 216 374 337 337
 337 337 337 337 59 59 59 300 300 300 300 300 300 213 213 239 63 63 63 328
 328 358 358 358 358 161 374 374 374 337 123 337 5 59 59 59 59 59 300 300
 300 300 300 220 220 63 63 63 63 63 63 358 358 358 161 161 374 374 374 123
 123 5 5 59 59 59 59 59 401 401 21 21 21 220 220 220 63 63 63 63
 63 63 358 161 161 161 161 374 374 123 123 5 5 59 59 59 59 59 401 401
 21 21 21 220 220 220 220 63 63 63 70 70 70 303 161 161 161 126 126 123
 123 123 5 59 59 59 59 59 401 401 21 21 220 220 220 220 220 63 63 70
 70 70 303 303 303 117 117 126 126 123 149 149 149 59 59 59 4 4 4 401
 21 220 220 220 220 220 220 220 289 289 70 70 303 303 117 117 117 126 126 126
 139 139 139 139 77 77 4 4 4 281 281 281 281 220 220 220 60 60 60 289
 70 346 346 346 117 117 117 117 385 385 139 139 139 139 77 77 77 4 4 281
 281 281 281 281 220 60 60 60 60 146 146 346 346 346 346 117 117 385 385 139
 139 139 139 139 77 77 4 4 4 281 281 281 281 281 281 60 60 60 60 146
 146 346 346 346 346 117 117 385 385 139 139 270 139 139 98 98 98 4 359 359
 359 359 281 281 83 83 83 83 146 146 138 138 346 346 346 55 55 55 283 283
 283 270 139 98 98 98 98 95 359 359 359 359 359 359 83 83 83 83 146 138
 138 138 138 138 55 55 55 283 283 283 283 230 230 98 98 98 98 95 95 359
 359 359 359 359 83 83 83 83 83 138 138 138 138 138 138 55 55 283 283 283
 230 230 230 230 98 98 98 95 95 95 95 359 359 277 277 83 83 29 29 138
 138 138 138 138 138 138 14 283 283 283 230 230 230 230 98 98 95 95 95 95
 95 95 277 277 277 277 29 29 29 138 138 138 138 138 138 284 284 261 261 230
 230 230 230 230 98 253 95 95 95 95 95 95 277 277 277 277 29 29 29 267
 56 284 284 284 284 284 261 261 261 261 261 159 159 159 16 16 16 95 95 95
 95 95 277 277 277 258 258 29 267 56 56 56 284 284 284 284 284 261 261 261
 261 159 159 343 16 16 16 16 95 95 95 95 277 258 258 258 258 258 56 56
 56 56 284 284 284 284 38 261 261 261 100 100 343 343 16 16 16 16 324 324
 324 324 258 258 258 258 258 258 258 56 56 56 284 284 284 259 259 261 261 261
 100 100 100 343 16 16 16 16 324 324 324 324 324 258 258 258 258 258 162 162
 292 292 292 284 259 259 259 259 38 100 100 100 100 100 16 16 16 324 324 324
 324 324 324 372 372 258 183 183 183 162 292 292 292 259 259 259 259 259 259 100
 100 100 100 100 16 178 178 178 324 324 324 324 324 372 372 372 183 183 183 183
 292 292 292 259 259 259 299 299 299 100 100 100 100 100 68 68 178 178 324 324
 324 324 256 256 256 256 183 183 183 183 196 196 196 186 299 299 299 299 299 100
 380 380 380 68 68 68 68 68 324 324 324 256 256 256 256 256 76 76 76 196
 196 196 196 186 186 186 186 186 186 100 380 380 380 68 68 68 68 68 169 169
 169 256 256 256 256 256 76 76 76 196 196 196 196 186 186 186 186 186 186 186
 380 380 380 68 68 68 68 68 169 169 169 256 256 256 256 256 76 76 76 196
 196 196 196 186 186 186 186 186 186 186 355 380 380 68 68 68 68 68 169 169
 169 256 256 256 256 239 239 76 76 39 196 196 196 216 186 186 186 186 186 376
 376 376 355 68 194 194 194 194 169 169 169 256 256 256 239 239 239 239 39 39
 39 39 216 216 216 216 216 376 376 376 376 337 355 194 194 194 194 194 169 300
 300 300 300 239 239 239 239 239 239 39 39 358 216 216 216 216 216 376 376 376
 337 337 337 337 194 194 194 194 300 300 300 300 213 213 239 239 239 239 51 51
 328 328 216 216 216 216 216 376 376 337 337 337 337 337 194 194 194 300 300 300
 300 300 213 213 213 239 239 63 51 51 328 328 328 216 216 216 216 374 337 337
 337 337 337 337 59 59 59 300 300 300 300 300 213 213 213 239 63 63 63 328
 328 328 328 358 358 374 374 374 374 337 337 337 5 59 59 59 59 59 300 300
 300 300 21 213 213 63 63 63 63 63 63 63 358 358 161 374 374 374 374 374
 5 5 5 5 59 59 59 59 401 21 21 21 21 220 220 220 63 63 63 63
 63 63 63 161 161 161 374 374 374 374 5 5 5 5 59 59 59 59 401 21
 21 21 21 220 220 220 63 63 63 63 63 70 303 303 303 161 126 126 126 123
 5 5 5 59 59 59 59 59 401 21 21 21 21 220 220 220 220 63 63 289
 70 70 303 303 303 303 126 126 126 126 149 149 149 59 59 59 59 59 223 223
 223 223 220 220 220 220 220 146 289 289 289 70 303 303 303 117 117 126 126 126
 149 149 149 139 77 77 77 4 223 223 223 223 223 220 220 220 146 146 146 289
 146 346 346 346 346 117 117 385 385 385 139 139 139 139 77 77 77 4 223 223
 223 223 281 281 125 125 146 146 146 146 146 346 346 346 346 346 385 385 385 385
 139 139 139 139 77 77 77 4 223 223 281 281 281 281 125 125 146 146 146 146
 146 346 346 346 346 346 385 385 385 139 139 139 139 139 98 98 98 98 359 359
 359 359 281 281 125 83 83 146 146 146 146 138 346 346 346 346 385 385 283 283
 283 283 139 98 98 98 98 98 359 359 359 359 359 359 83 83 83 83 146 146
 138 138 138 138 14 14 14 283 283 283 283 283 230 98 98 98 98 98 95 359
 359 359 359 359 83 83 83 83 146 138 138 138 138 138 14 14 14 283 283 283
 283 230 230 98 98 98 98 95 95 95 359 359 277 277 277 83 83 29 29 138
 138 138 138 138 14 14 14 283 283 283 230 230 230 230 98 98 98 95 95 95
 95 95 277 277 277 277 29 29 29 29 138 138 138 138 14 14 286 286 261 261
 159 159 159 159 348 348 348 95 95 95 95 277 277 277 277 277 29 29 29 29
 56 138 138 138 284 286 286 286 261 261 261 159 159 159 16 16 16 16 95 95
 95 395 277 277 277 258 258 29 29 56 56 56 284 284 284 286 286 261 261 261
 159 159 159 159 16 16 16 16 95 95 95 395 277 277 258 258 258 258 258 56
 56 56 284 284 284 224 286 261 261 261 100 100 100 16 16 16 16 16 324 324
 324 324 258 258 258 258 258 258 258 56 56 56 56 224 224 224 259 261 261 261
 100 100 100 100 16 16 16 16 324 324 324 324 372 372 258 258 258 258 183 292
 292 292 292 224 224 259 259 259 261 100 100 100 100 100 16 16 16 324 324 324
 324 324 372 372 372 372 183 183 183 183 292 292 292 259 259 259 259 259 259 100
 100 100 100 100 16 178 178 178 324 324 324 324 372 372 372 372 183 183 183 183
 292 292 292 259 259 259 259 259 259 100 100 100 100 100 68 178 178 178 324 324
 324 324 372 372 372 372 183 183 183 183 292 196 186 186 186 186 186 186 186 100
 380 380 380 68 68 121 68 178 324 324 324 256 256 256 256 256 76 76 76 76
 196 196 186 186 186 186 186 186 186 100 380 380 380 380 121 121 121 68 169 169
 169 256 256 256 256 256 76 76 76 76 196 196 186 186 186 186 186 186 186 380
 380 380 380 68 68 121 68 68 169 169 169 169 256 256 256 256 76 76 76 76
 196 196 186 186 186 186 186 186 186 380 380 380 380 68 68 68 68 68 169 169
 169 169 256 256 256 239 239 76 76 39 39 39 216 216 186 186 186 186 186 376
 376 376 376 194 194 194 194 194 169 169 169 169 256 239 239 239 239 239 39 39
 39 39 216 216 216 216 216 376 376 376 376 337 337 194 194 194 194 194 169 169
 300 300 300 239 239 239 239 239 39 39 39 39 216 216 216 216 216 376 376 376
 337 337 337 194 194 194 194 194 300 300 300 300 213 213 239 239 239 239 328 328
 328 328 328 216 216 216 216 376 376 376 337 337 337 337 194 194 112 112 300 300
 300 300 213 213 213 239 239 63 328 328 328 328 328 216 216 216 216 374 337 337
 337 337 337 1 59 112 112 112 180 180 300 300 213 213 213 239 63 63 63 328
 328 328 328 358 216 216 374 374 374 337 337 337 5 59 59 59 112 112 180 180
 180 21 21 213 213 63 63 63 63 63 63 328 328 265 265 374 374 374 374 374
 5 5 5 5 59 59 59 59 180 180 21 21 21 21 220 63 63 63 63 63
 63 63 63 303 161 161 374 374 374 374 5 5 5 5 59 59 59 59 180 21
 21 21 21 21 220 220 63 63 63 63 63 63 303 303 303 303 126 126 126 126
 5 5 5 5 59 59 59 59 223 223 21 21 21 132 220 220 63 63 63 63
 63 303 303 303 303 303 126 126 126 126 149 149 149 5 59 59 251 251 223 223
 223 223 223 132 132 220 146 146 146 289 146 303 303 303 303 303 126 126 126 126
 149 149 149 251 251 251 251 251 223 223 223 223 223 132 125 125 146 146 146 146
 146 146 346 346 346 346 385 385 385 385 139 149 139 251 251 251 251 251 223 223
 223 223 223 125 125 125 146 146 146 146 146 146 346 346 346 346 385 385 385 385
 139 139 139 251 251 251 251 251 223 223 223 223 223 125 125 125 146 146 146 146
 146 146 346 346 346 346 385 385 385 139 139 139 139 119 98 98 98 98 268 359
 359 359 281 125 125 125 146 146 146 146 146 146 346 346 346 14 14 385 283 283
 283 283 119 119 98 98 98 98 268 268 359 359 359 359 83 83 83 146 146 146
 138 138 138 138 14 14 14 14 283 283 283 283 119 119 98 98 98 98 268 268
 268 359 359 277 83 83 83 83 146 138 138 138 138 138 14 14 14 14 283 283
 283 159 119 119 98 98 98 98 268 268 268 359 277 277 277 83 29 29 29 138
 138 138 138 138 14 14 14 14 283 283 159 159 159 119 119 98 98 95 95 95
 95 277 277 277 277 277 29 29 29 29 138 138 138 138 14 14 286 286 261 261
 159 159 159 159 348 348 348 95 95 95 395 395 277 277 277 277 29 29 29 29
 56 138 138 81 14 286 286 286 261 261 159 159 159 159 348 348 348 348 95 395
 395 395 395 277 277 258 258 29 29 56 56 56 81 81 81 286 286 286 261 261
 159 159 159 159 16 16 16 16 16 395 395 395 395 277 258 258 258 258 173 56
 56 56 81 81 81 286 286 261 261 261 159 159 159 16 16 16 16 16 16 324
 324 395 395 258 258 258 258 258 258 56 56 56 292 224 224 224 259 246 246 261
 100 100 100 16 16 16 16 16 324 324 324 324 372 372 372 258 258 183 183 183
 292 292 292 224 224 224 259 246 246 100 100 100 100 100 16 16 16 324 324 324
 324 324 372 372 372 372 183 183 183 183 292 292 292 259 259 259 259 259 246 100
 100 100 100 100 190 190 178 324 324 324 324 324 372 372 372 372 183 183 183 183
 292 292 292 259 259 259 259 259 100 100 100 100 100 100 190 190 178 178 324 324
 324 324 372 372 372 372 183 183 183 183 292 292 186 186 186 186 186 186 186 100
 380 380 380 190 190 121 121 178 324 324 324 256 256 256 256 256 76 76 76 76
 76 196 186 186 186 186 186 186 186 186 380 380 380 380 121 121 121 68 169 169
 169 169 256 256 256 256 76 76 76 76 76 196 186 186 186 186 186 186 186 380
 380 380 380 68 121 121 121 68 169 169 169 169 256 256 256 256 76 76 76 76
 76 196 186 186 186 186 186 186 186 186 380 380 380 68 68 68 68 169 169 169
 169 169 214 256 256 239 76 76 76 39 39 39 186 186 186 186 186 186 186 376
 376 376 19 194 194 194 194 194 169 169 169 214 214 214 239 239 239 239 39 39
 39 39 39 216 216 216 216 376 376 376 376 337 337 194 194 194 194 194 169 169
 214 214 214 239 239 239 239 239 39 39 39 39 39 216 216 216 216 376 376 376
 337 337 1 1 1 194 194 112 214 214 214 214 214 213 239 239 239 328 328 328
 328 328 328 216 216 216 216 206 376 376 337 337 1 1 1 112 112 112 180 180
 300 300 213 213 213 239 242 328 328 328 328 328 328 265 265 265 265 374 337 337
 337 1 1 1 1 112 112 112 180 180 180 180 213 213 242 242 242 63 328 328
 328 328 328 265 265 265 265 374 374 337 337 5 1 1 59 112 112 112 180 180
 180 180 21 242 242 242 242 63 63 63 328 328 265 265 265 265 374 374 374 104
 5 5 5 354 59 59 112 112 180 180 180 21 21 21 242 242 47 47 63 63
 63 63 63 265 41 41 41 374 374 104 5 5 5 354 59 59 59 59 180 180
 21 21 21 31 31 47 47 47 63 63 63 63 303 303 41 41 41 41 126 104
 179 354 354 354 59 59 59 59 223 223 223 223 132 132 132 47 47 47 146 146
 146 146 303 303 303 41 41 41 126 179 179 179 354 354 251 251 251 251 223 223
 223 223 132 132 132 132 146 146 146 146 146 146 303 303 303 41 41 126 179 179
 179 149 149 251 251 251 251 251 223 223 223 223 223 132 132 125 146 146 146 146
 146 146 346 346 346 346 385 385 179 179 179 179 179 251 251 251 251 251 223 223
 223 223 223 125 125 125 146 146 146 146 146 146 346 346 346 346 385 385 385 179
 179 179 119 251 251 251 251 251 305 223 223 223 223 125 125 125 146 146 146 146
 146 146 346 346 346 346 385 385 385 179 119 119 119 119 119 251 251 251 305 305
 305 305 383 383 125 125 146 146 146 146 146 146 346 346 14 14 14 14 283 283
 119 119 119 119 119 119 98 98 268 268 268 268 383 383 125 83 83 146 146 146
 146 138 138 14 14 14 14 14 283 283 119 119 119 119 119 119 98 268 268 268
 268 268 327 327 327 83 83 146 146 138 138 138 138 14 14 14 14 14 283 283
 119 119 119 119 119 119 119 268 268 268 268 268 327 327 327 327 29 29 29 138
 138 138 138 244 14 14 14 14 283 283 159 159 119 119 119 119 348 348 95 395
 395 395 327 327 327 327 29 29 173 173 138 138 138 244 14 14 286 286 286 159
 159 159 159 159 348 348 348 348 95 395 395 395 395 277 277 277 29 173 173 173
 173 81 81 81 81 286 286 286 286 159 159 159 159 159 348 348 348 348 348 395
 395 395 395 395 277 258 173 173 173 173 173 81 81 81 81 241 286 286 261 159
 159 159 159 159 348 348 348 348 348 395 395 395 395 395 258 258 258 173 173 173
 173 81 81 81 81 241 286 246 246 159 159 159 159 16 16 16 16 16 16 395
 395 395 395 372 258 258 258 258 173 173 173 81 81 81 81 224 246 246 246 246
 100 100 100 16 16 16 16 16 324 324 324 372 372 372 372 372 258 183 183 183
 292 292 292 224 224 259 246 246 246 246 100 100 100 100 16 16 16 324 324 324
 324 372 372 372 372 372 183 183 183 183 292 292 292 259 259 259 259 246 246 246
 100 100 100 190 190 190 190 190 324 324 324 372 372 372 372 372 183 183 183 183
 292 292 292 259 259 259 259 263 263 100 100 100 100 190 190 190 190 190 324 324
 324 85 372 372 372 372 183 183 183 183 183 292 186 186 186 186 186 263 263 263
 380 380 380 190 190 190 190 190 324 324 324 214 256 372 372 372 76 76 76 76
 76 196 186 186 186 186 186 186 186 186 380 380 19 190 190 190 190 190 169 169
 169 214 214 256 256 192 76 76 76 76 76 196 186 186 186 186 186 186 186 186
 19 19 19 19 121 121 121 169 169 169 169 214 214 214 256 76 76 76 76 76
 76 39 186 186 186 186 186 186 186 19 19 19 19 19 19 68 68 169 169 169
 169 214 214 214 214 76 76 76 39 39 39 39 39 360 186 186 186 186 186 376
 19 19 19 19 194 194 194 194 169 214 214 214 214 214 239 239 239 76 39 39
 39 39 39 360 216 216 206 206 206 376 376 19 19 1 194 194 194 194 214 214
 214 214 214 214 239 239 239 239 39 39 39 39 39 216 216 216 216 206 206 376
 337 1 1 1 1 1 1 112 214 214 214 214 214 214 239 239 242 328 328 39
 39 39 39 265 265 206 206 206 206 376 337 1 1 1 1 1 112 112 112 180
 300 214 214 213 242 242 242 242 328 328 328 328 328 265 265 265 265 206 206 104
 1 1 1 1 1 112 112 112 180 180 180 180 242 242 242 242 242 242 328 328
 328 328 265 265 265 265 265 104 104 104 104 1 1 1 1 112 112 112 180 180
 180 180 242 242 242 242 242 47 47 47 328 328 265 265 265 265 41 104 104 104
 331 331 354 354 406 406 112 112 180 180 180 21 31 31 242 242 47 47 47 47
 63 63 265 265 41 41 41 104 104 104 331 331 354 354 406 406 406 406 409 409
 409 21 31 31 31 47 47 47 47 47 63 205 41 41 41 41 41 41 104 104
 179 354 354 354 406 406 406 406 409 409 223 223 31 31 31 47 47 47 47 146
 146 146 303 41 41 41 41 41 104 179 179 179 354 354 354 251 251 251 223 223
 223 223 132 132 132 47 47 47 146 146 146 146 146 79 79 79 41 41 179 179
 179 179 354 354 251 251 251 251 305 223 223 223 223 132 132 125 146 146 146 146
 146 146 146 79 79 79 48 48 179 179 179 179 179 251 251 251 251 251 305 305
 305 223 223 125 125 125 146 146 146 146 146 146 146 79 79 79 48 48 48 179
 179 179 119 119 251 251 251 251 305 305 305 305 383 383 125 125 146 146 146 146
 146 146 146 346 79 79 48 48 48 179 119 119 119 119 119 119 251 251 305 305
 305 305 383 383 383 125 146 146 146 146 146 146 146 14 14 14 14 14 48 179
 119 119 119 119 119 119 119 119 268 268 268 305 383 383 383 383 146 146 146 146
 146 146 138 14 14 14 14 14 14 283 119 119 119 119 119 119 119 268 268 268
 268 268 327 327 327 327 327 146 146 146 138 244 244 244 14 14 14 14 14 283
 119 119 119 119 119 119 119 119 268 268 268 327 327 327 327 327 327 173 173 173
 173 244 244 244 14 14 14 14 14 283 159 119 119 119 119 119 119 119 268 268
 395 327 327 327 327 327 327 173 173 173 173 304 244 244 244 14 14 14 286 159
 159 159 159 119 348 348 348 348 348 395 395 395 327 327 327 327 327 173 173 173