# vtk DataFile Version 2.0
Data set from IO Version 6.4.197.9a0dee2
ASCII

DATASET RECTILINEAR_GRID
DIMENSIONS 31 31 31
X_COORDINATES 31 float
-4.116666 4.116666 12.349998 20.583330 28.816664 37.049999 45.283329 53.516663 61.749996 69.983322 78.216660 86.449989 94.683319 102.916656 111.149986 119.383324 127.616653 135.849991 144.083313 152.316650 160.549988 
168.783310 177.016647 185.249985 193.483307 201.716644 209.949982 218.183319 226.416641 234.649979 242.883316 
Y_COORDINATES 31 float
-4.116666 4.116666 12.349998 20.583330 28.816664 37.049999 45.283329 53.516663 61.749996 69.983322 78.216660 86.449989 94.683319 102.916656 111.149986 119.383324 127.616653 135.849991 144.083313 152.316650 160.549988 
168.783310 177.016647 185.249985 193.483307 201.716644 209.949982 218.183319 226.416641 234.649979 242.883316 
Z_COORDINATES 31 float
-4.116666 4.116666 12.349998 20.583330 28.816664 37.049999 45.283329 53.516663 61.749996 69.983322 78.216660 86.449989 94.683319 102.916656 111.149986 119.383324 127.616653 135.849991 144.083313 152.316650 160.549988 
168.783310 177.016647 185.249985 193.483307 201.716644 209.949982 218.183319 226.416641 234.649979 242.883316 
CELL_DATA 27000
SCALARS FeatureIds int 1
LOOKUP_TABLE default
 86 86 86 86 86 34 335 335 335 335 335 335 335 123 123 123 123 123 123 123
 123 123 108 108 47 47 47 47 86 86 86 86 86 86 86 229 335 335 335 335
 335 335 335 335 123 123 123 123 123 123 123 123 240 47 47 47 47 47 86 86
 86 86 86 86 229 229 335 335 335 335 335 335 335 335 123 123 123 123 123 123
 123 240 240 227 47 47 47 14 14 14 14 86 86 86 229 229 229 335 335 335
 335 335 335 30 123 123 123 123 123 123 240 240 240 227 227 42 42 42 42 14
 14 86 86 229 229 229 208 208 335 335 335 335 30 30 30 123 123 123 123 240
 240 240 240 240 240 42 42 42 42 14 14 14 58 58 229 208 208 208 208 335
 335 335 30 30 30 194 194 194 240 240 240 240 240 240 240 42 42 42 42 14
 14 58 58 58 58 208 208 208 208 335 335 185 30 30 30 194 194 194 194 240
 240 240 240 240 240 42 169 169 42 14 58 58 58 58 58 58 58 208 208 335
 185 185 185 30 30 194 194 194 194 240 240 240 240 240 240 169 169 169 169 169
 58 58 58 58 58 58 58 58 18 287 287 185 185 30 168 194 194 194 194 240
 240 240 240 240 4 169 169 169 169 169 58 58 58 58 58 58 58 18 18 287
 287 287 287 168 168 168 168 289 289 289 240 240 240 4 4 4 169 392 169 169
 58 58 58 58 58 58 58 18 18 287 287 287 168 168 168 168 168 289 289 289
 289 289 4 4 4 4 392 392 392 392 367 367 367 58 58 58 18 18 18 18
 287 287 168 168 168 168 168 289 289 289 289 289 4 4 4 4 392 392 392 392
 367 367 367 367 367 58 18 18 18 18 18 287 168 189 189 168 168 289 289 289
 289 289 4 4 4 4 392 392 392 392 367 367 367 367 367 367 18 18 199 199
 199 189 189 189 189 189 189 292 289 289 289 289 48 4 4 4 392 392 221 221
 32 32 367 367 367 314 314 18 199 199 199 189 189 189 189 189 292 292 292 292
 289 48 48 48 48 48 81 221 221 221 32 32 32 32 314 314 314 314 199 199
 199 189 189 189 189 292 292 292 292 292 292 48 48 48 48 81 81 81 221 221
 32 32 32 314 314 314 314 314 280 280 280 280 155 155 155 155 383 383 292 104
 139 48 48 48 81 81 81 81 221 221 32 32 32 314 314 314 314 314 280 280
 280 280 155 155 155 155 383 383 104 104 139 139 139 81 81 81 81 81 8 8
 8 8 32 314 314 314 314 314 280 280 280 280 155 155 155 155 104 104 104 104
 139 139 139 139 81 81 81 81 8 8 8 8 8 314 327 327 327 314 280 280
 280 280 155 155 155 155 104 104 104 104 139 139 139 139 81 81 81 8 8 8
 8 8 8 225 225 225 225 225 225 280 280 184 184 184 184 184 319 104 104 139
 139 139 139 139 213 213 81 8 8 8 8 356 356 225 225 225 225 225 225 225
 304 184 184 184 184 184 319 319 319 319 139 139 213 213 213 213 213 8 8 8
 356 356 356 107 225 225 225 245 245 245 304 184 184 184 223 223 319 319 319 319
 319 213 213 213 213 213 213 213 8 356 356 356 356 107 107 245 245 245 245 376
 304 223 223 223 223 223 395 319 319 319 319 213 213 213 213 213 213 213 356 356
 356 356 356 356 245 245 245 245 376 376 376 223 223 223 223 223 319 319 319 319
 319 213 213 213 213 213 213 213 340 356 356 356 356 338 245 245 245 245 376 376
 223 223 223 223 223 223 223 319 319 319 319 213 213 213 213 213 213 213 340 340
 338 338 338 338 353 353 245 245 366 366 366 165 223 223 223 223 223 319 319 319
 303 213 213 213 213 213 213 372 372 372 338 338 338 338 353 353 353 366 366 366
 366 165 165 223 223 223 223 123 303 303 303 303 303 213 375 375 375 372 372 372
 86 338 338 338 338 353 353 353 366 366 366 165 165 223 223 223 123 123 123 303
 303 303 303 303 108 375 375 372 372 86 86 86 86 338 34 34 34 34 366 366
 366 165 165 223 223 123 123 123 123 123 303 303 108 108 108 108 47 47 86 86
 86 86 86 86 86 34 335 335 335 335 335 335 335 123 123 123 123 123 123 123
 303 303 303 47 47 47 47 47 86 86 86 86 86 86 86 229 335 335 335 335
 335 335 335 335 123 123 123 123 123 123 123 303 303 47 47 47 47 47 86 86
 86 86 86 86 229 229 229 335 335 335 335 335 335 335 123 123 123 123 123 123
 123 240 240 47 47 47 47 42 42 86 86 86 86 86 229 229 229 335 335 335
 335 335 335 30 194 194 194 123 123 123 240 240 240 240 47 47 42 42 42 42
 14 86 86 229 229 229 229 335 335 335 335 335 335 30 194 194 194 194 194 240
 240 240 240 240 240 42 42 42 42 42 14 14 250 250 250 250 208 208 335 335
 335 335 335 30 194 194 194 194 194 240 240 240 240 240 240 42 42 42 42 42
 14 1 58 58 250 250 208 208 208 335 335 185 30 30 194 194 194 194 194 194
 240 240 240 240 240 42 169 169 169 42 58 58 58 58 58 58 58 208 208 287
 287 287 185 30 194 194 194 194 194 194 240 240 240 240 240 169 169 169 169 169
 58 58 58 58 58 58 58 18 287 287 287 287 287 287 194 194 194 194 194 194
 240 240 240 240 186 169 169 169 169 169 58 58 58 58 58 58 58 18 287 287
 287 287 287 168 168 168 194 194 194 289 289 240 240 4 4 392 392 392 392 392
 58 58 58 58 58 58 58 18 287 287 287 287 168 168 168 168 168 289 289 289
 289 289 4 4 4 392 392 392 392 392 367 367 367 58 58 58 18 18 287 287
 287 287 168 168 168 168 168 289 289 289 289 289 4 4 4 4 392 392 392 392
 367 367 367 367 367 384 384 18 199 199 287 287 168 168 168 168 168 289 289 289
 289 289 4 4 4 392 392 392 392 392 367 367 367 367 367 384 384 199 199 199
 199 199 168 168 168 168 292 292 292 289 289 289 48 4 4 392 392 392 392 221
 221 367 367 367 367 314 314 199 199 199 199 199 189 189 189 292 292 292 292 292
 292 48 48 48 48 48 392 221 221 221 221 32 32 314 314 314 314 314 199 199
 199 199 189 189 299 292 292 292 292 292 292 48 48 48 48 81 81 221 221 221
 221 32 32 314 314 314 314 314 280 280 280 280 155 155 155 292 292 383 292 292
 308 48 48 48 48 81 81 81 221 221 32 32 32 314 314 314 314 314 280 280
 280 280 155 155 155 383 383 383 383 104 139 139 139 81 81 81 81 81 221 221
 8 8 314 314 314 314 314 314 280 280 280 280 155 155 155 383 383 383 383 104
 139 139 139 139 81 81 81 81 8 8 8 8 314 314 314 314 314 314 280 280
 280 280 155 155 155 383 383 104 104 104 139 139 139 139 81 81 81 8 8 8
 8 8 356 225 314 314 314 314 280 280 280 184 184 184 184 184 319 319 319 139
 139 139 139 139 213 364 364 364 364 8 356 356 356 225 225 225 225 225 245 304
 304 304 184 184 184 319 319 319 319 319 319 139 213 213 213 213 364 364 364 8
 356 356 356 107 107 245 245 245 245 304 304 304 223 223 223 223 319 319 319 319
 319 213 213 213 213 213 364 364 364 356 356 356 356 107 107 245 245 245 245 304
 304 304 223 223 223 223 319 319 319 319 319 213 213 213 213 213 213 364 364 356
 356 356 356 356 245 245 245 245 245 304 304 223 223 223 223 223 319 319 319 319
 319 213 213 213 213 213 213 340 340 340 340 356 338 338 245 245 245 245 245 366
 223 223 223 223 223 223 223 319 319 319 319 213 213 213 213 213 213 340 340 340
 338 338 338 338 353 353 245 245 366 366 366 223 223 223 223 223 223 319 319 303
 303 303 303 213 375 375 375 372 372 372 338 338 338 338 353 353 353 366 366 366
 366 223 223 223 223 223 223 303 303 303 303 303 303 375 375 375 375 372 372 372
 86 338 338 338 353 353 353 366 366 366 366 165 223 223 223 223 123 123 303 303
 303 303 303 375 375 375 375 372 372 372 86 86 86 338 338 353 353 366 366 366
 366 165 223 223 223 123 123 123 123 303 303 303 303 375 375 47 47 47 372 86
 86 86 86 86 86 242 242 335 335 335 335 335 335 123 123 123 123 123 123 303
 303 291 291 47 47 47 47 47 86 86 86 86 86 86 86 229 229 335 335 335
 335 335 335 335 123 123 123 123 123 123 291 291 291 47 47 47 47 47 86 86
 86 86 86 86 229 229 229 335 335 335 335 335 335 335 194 194 194 194 123 123
 291 291 291 47 47 47 47 47 42 86 86 86 86 86 229 229 229 335 335 335
 335 335 335 194 194 194 194 194 194 194 240 240 291 47 47 47 47 42 42 42
 86 86 86 250 250 250 250 335 335 335 335 335 335 30 194 194 194 194 194 194
 240 240 240 240 37 37 42 42 42 42 1 1 250 250 250 250 250 250 335 335
 335 335 335 194 194 194 194 194 194 194 240 240 240 240 37 37 42 42 42 42
 1 1 1 1 250 250 250 250 208 335 335 185 194 194 194 194 194 194 194 194
 194 240 240 240 37 37 169 169 169 42 1 1 1 1 58 250 250 250 287 287
 287 287 287 194 194 194 194 194 194 194 194 240 240 240 186 186 169 169 169 169
 1 1 1 58 58 58 58 18 287 287 287 287 287 287 194 194 194 194 194 194
 194 40 40 186 186 186 186 169 169 169 58 58 58 58 58 58 58 18 287 287
 287 287 287 168 168 194 194 194 194 194 289 40 40 186 186 186 186 392 392 392
 58 58 58 58 58 58 384 287 287 287 287 287 168 168 168 168 194 194 289 289
 289 289 40 4 186 186 392 392 392 392 367 367 367 384 384 384 384 384 287 287
 287 287 168 168 168 168 168 289 289 289 289 289 40 17 17 392 392 392 392 392
 367 367 367 384 384 384 384 384 199 287 287 287 168 168 168 168 168 289 289 289
 289 289 17 17 17 17 392 392 392 392 367 367 367 384 384 384 384 384 199 199
 199 199 168 168 168 283 292 292 292 292 289 289 48 17 17 17 392 392 392 392
 221 367 367 384 384 384 384 384 199 199 199 199 168 283 283 283 292 292 292 292
 292 48 48 48 48 17 17 392 221 221 221 32 32 314 314 314 314 314 199 199
 199 199 299 299 299 299 292 292 292 292 292 48 48 48 48 17 17 221 221 221
 221 32 32 314 314 314 314 314 280 280 280 280 299 299 299 299 292 292 292 292
 308 308 48 48 48 81 81 221 221 221 221 28 314 314 314 314 314 314 280 280
 280 280 299 299 299 299 383 383 383 104 308 308 308 48 81 81 81 81 221 221
 28 28 28 314 314 314 314 314 280 280 280 280 155 299 299 299 383 383 383 104
 308 308 308 308 81 81 81 364 8 8 28 28 28 28 314 314 314 314 280 280
 280 280 369 369 369 11 383 383 104 104 91 91 91 91 81 364 364 364 364 364
 28 28 28 28 28 314 314 314 157 157 157 369 369 369 369 11 319 319 319 319
 91 91 91 91 364 364 364 364 364 364 28 28 28 28 225 225 225 245 245 304
 304 369 369 369 369 369 319 319 319 319 91 91 91 213 213 364 364 364 364 364
 356 356 356 356 245 245 245 245 245 304 304 304 304 369 223 223 319 319 319 319
 319 213 213 213 213 364 364 364 364 364 356 356 356 356 245 245 245 245 245 304
 304 304 304 223 223 223 319 319 319 319 319 213 213 213 213 213 364 364 364 340
 340 356 356 356 245 245 245 245 245 304 304 304 223 223 223 223 319 319 319 319
 319 213 213 213 213 213 364 340 340 340 340 338 338 338 245 245 245 245 75 75
 304 223 223 223 223 223 223 319 319 319 303 303 213 213 213 375 340 340 340 340
 372 338 338 338 353 353 245 75 366 366 366 223 223 223 223 223 223 319 303 303
 303 303 303 375 375 375 375 372 372 372 372 338 338 338 353 353 353 75 366 366
 366 223 223 223 223 223 223 303 303 303 303 303 303 375 375 375 375 372 372 372
 372 338 338 338 338 353 353 75 366 366 366 223 223 223 223 223 123 123 303 303
 303 303 303 375 375 375 375 372 372 372 86 86 338 338 338 353 353 75 366 366
 366 223 223 223 223 123 123 123 303 303 303 303 303 375 375 47 47 47 372 372
 86 86 86 242 242 242 242 242 335 335 335 197 197 197 123 123 123 83 83 83
 83 291 291 291 47 47 47 47 47 86 86 86 86 242 242 296 296 335 335 335
 335 335 197 197 194 194 123 83 83 83 291 291 291 291 47 47 47 47 47 86
 86 86 86 86 296 296 296 335 335 335 335 335 335 194 194 194 194 194 194 194
 291 291 291 291 47 47 47 47 42 86 86 86 86 296 296 250 250 335 332 335
 335 335 335 194 194 194 194 194 194 194 291 291 291 291 47 47 47 47 42 42
 86 86 250 250 250 250 250 332 332 335 335 335 335 194 194 194 194 194 194 194
 194 344 240 37 37 37 37 42 42 42 1 1 250 250 250 250 250 332 332 332
 335 335 194 194 194 194 194 194 194 194 194 344 344 37 37 37 37 42 42 42
 1 1 1 1 250 250 250 332 332 332 150 150 194 194 194 194 194 194 194 194
 194 344 240 37 37 37 37 169 169 42 1 1 1 1 250 250 250 332 287 287
 150 150 150 194 194 194 194 194 194 194 194 194 40 186 186 186 186 169 169 169
 1 1 1 1 58 58 58 332 287 287 150 150 150 150 194 194 194 194 194 194
 194 40 40 186 186 186 186 186 169 392 1 1 58 58 384 384 384 384 287 287
 287 150 150 150 168 194 194 194 216 216 216 40 40 40 186 186 186 392 392 392
 336 58 58 384 384 384 384 384 287 287 287 287 150 168 283 283 283 216 216 216
 216 40 40 40 186 186 392 392 392 392 336 384 384 384 384 384 384 384 287 287
 287 287 168 168 283 283 283 283 289 289 289 40 40 17 17 17 392 392 392 392
 336 384 384 384 384 384 384 384 384 287 287 287 283 283 283 283 283 283 283 289
 289 289 17 17 17 17 392 392 392 392 336 384 384 384 384 384 384 384 384 199
 199 199 283 283 283 283 283 283 292 292 289 277 17 17 17 17 17 392 392 336
 221 43 43 43 384 384 384 384 384 199 199 199 283 283 283 283 283 292 292 292
 121 277 48 17 17 17 17 392 336 336 221 43 43 43 43 314 314 384 384 237
 237 237 299 299 299 299 292 292 292 121 121 308 235 235 235 17 17 392 210 210
 221 43 43 43 314 314 314 314 280 280 280 237 299 299 299 299 299 292 292 121
 308 308 308 235 235 235 231 210 210 210 28 28 28 314 314 314 314 314 280 280
 280 237 299 299 299 299 299 383 383 308 308 308 308 235 235 235 231 210 210 210
 28 28 28 28 314 314 314 314 157 280 157 237 299 299 299 299 299 383 383 308
 308 308 308 235 235 235 364 364 210 210 28 28 28 28 28 314 314 314 157 157
 157 157 369 369 11 11 311 383 91 91 91 91 91 91 235 364 364 364 364 28
 28 28 28 28 28 288 314 157 157 157 157 369 369 369 11 11 11 319 319 91
 91 91 91 91 91 364 364 364 364 364 28 28 28 28 288 288 288 75 157 157
 304 369 369 369 369 11 319 319 319 91 91 91 91 91 91 60 364 364 364 364
 28 28 28 28 288 288 75 75 75 304 304 304 304 369 369 11 319 319 319 319
 91 91 91 91 213 60 60 364 364 364 340 356 356 356 75 75 75 75 75 304
 304 304 304 223 223 223 319 319 319 319 319 91 213 161 213 60 60 60 60 340
 340 340 356 356 75 75 75 75 75 304 304 304 304 223 223 223 232 232 319 319
 319 303 161 161 161 60 60 340 340 340 340 340 102 338 75 75 75 75 75 75
 304 304 223 223 223 223 232 232 232 232 303 303 161 161 161 161 340 340 340 230
 372 338 338 338 75 75 75 75 75 75 75 223 223 223 223 223 232 232 232 303
 303 303 303 375 375 375 375 372 372 340 372 338 338 338 338 75 75 75 75 366
 366 223 223 223 223 223 232 232 303 303 303 303 303 375 375 375 375 372 372 372
 372 338 338 338 242 242 75 75 75 366 366 223 223 223 223 223 83 83 83 303
 303 303 303 375 375 375 375 372 372 372 372 86 242 242 242 242 242 75 75 366
 366 223 223 223 223 123 83 83 83 83 303 303 303 375 375 375 47 372 372 372
 86 242 242 242 242 242 242 242 335 197 197 197 197 197 197 83 83 83 83 83
 83 291 291 291 47 47 47 191 191 86 86 242 242 242 242 296 296 296 296 393
 197 197 197 197 194 194 83 83 83 83 83 291 291 291 47 47 47 47 191 86
 86 86 86 296 296 296 296 296 296 393 393 197 197 194 194 194 194 194 264 264
 291 291 291 291 133 133 133 133 133 86 86 86 296 296 296 296 296 296 332 332
 393 393 195 194 194 194 194 194 194 194 291 291 291 133 133 133 133 133 133 42
 51 51 296 296 296 250 332 332 332 332 332 195 195 194 194 194 194 194 194 194
 344 344 344 133 133 133 133 298 298 298 51 51 250 250 250 250 332 332 332 332
 332 195 195 194 194 194 194 194 194 194 344 344 344 344 37 37 298 298 298 298
 51 51 1 1 250 250 332 332 332 332 150 150 150 194 194 194 194 194 194 194
 344 344 344 344 37 37 298 298 298 298 51 51 1 1 250 250 332 332 332 150
 150 150 150 150 194 194 194 194 194 194 194 344 344 186 186 186 186 186 298 51
 51 51 1 1 1 250 384 332 150 150 150 150 150 150 194 194 194 194 216 216
 216 40 40 40 186 186 186 186 186 392 51 51 1 384 384 384 384 384 384 150
 150 150 150 150 150 194 194 216 216 216 216 40 40 40 186 186 186 392 392 392
 336 336 384 384 384 384 384 384 384 150 150 150 150 150 283 283 283 216 216 216
 216 40 40 40 186 186 392 392 392 392 336 336 384 384 384 384 384 384 384 150
 150 150 150 283 283 283 283 283 216 216 216 40 40 17 17 17 392 392 392 336
 336 336 384 384 384 384 384 384 384 287 287 150 283 283 283 283 283 283 283 216
 216 40 40 17 17 17 17 392 336 336 336 43 43 384 384 384 384 384 384 384
 199 283 283 283 283 283 283 283 283 283 121 277 17 17 17 17 17 336 336 336
 336 43 43 43 43 384 384 384 384 237 237 283 283 283 283 283 283 283 121 121
 121 277 277 17 17 17 17 336 336 336 43 43 43 43 43 43 384 384 237 237
 237 237 283 283 299 299 283 283 121 121 121 277 235 235 235 235 17 210 210 210
 210 43 43 43 43 43 314 237 237 237 237 237 237 299 299 299 299 292 121 121
 121 308 235 235 235 235 231 210 210 210 210 28 28 43 43 314 314 237 237 237
 237 237 237 299 299 299 299 299 121 121 308 308 235 235 235 235 231 210 210 210
 28 28 28 28 28 270 270 157 157 157 157 237 237 299 311 311 311 311 91 91
 308 308 235 235 235 235 231 231 210 210 28 28 28 28 28 270 270 157 157 157
 157 157 157 311 311 311 311 311 91 91 91 91 91 91 235 231 231 231 231 28
 28 28 28 28 288 288 288 157 157 157 157 157 369 369 11 11 311 311 91 91
 91 91 91 91 91 60 60 364 364 364 28 28 28 28 288 288 288 288 157 157
 157 369 369 369 11 11 11 319 348 91 91 91 91 91 91 60 60 60 60 60
 28 28 28 28 288 288 288 75 75 304 304 304 304 369 11 11 11 319 348 348
 348 91 91 91 91 60 60 60 60 60 340 102 102 102 75 75 75 75 75 304
 304 304 304 223 11 11 232 232 232 348 348 348 161 161 161 60 60 60 60 340
 340 102 102 102 75 75 75 75 75 75 304 304 304 223 223 232 232 232 232 232
 348 348 161 161 161 154 60 60 340 340 102 102 102 102 75 75 75 75 75 75
 304 304 223 223 223 232 232 232 232 232 303 161 161 161 161 154 154 340 340 340
 102 102 102 102 75 75 75 75 75 75 75 223 223 223 223 232 232 232 232 232
 303 379 161 161 161 154 154 372 340 340 372 372 242 242 242 75 75 75 75 75
 75 223 223 223 223 232 232 232 232 303 379 379 379 375 375 375 375 372 372 372
 372 242 242 242 242 242 75 75 75 75 75 223 223 223 223 232 232 83 83 83
 83 379 379 375 375 375 191 191 372 372 372 242 242 242 242 242 242 75 75 75
 75 197 197 197 197 83 83 83 83 83 83 83 303 375 375 375 191 191 191 372
 325 242 242 242 242 242 242 242 393 197 197 197 197 197 197 197 83 83 83 83
 83 83 291 291 47 47 191 191 191 325 325 242 242 242 242 296 296 296 393 393
 197 197 197 197 197 194 264 264 264 264 264 264 291 291 133 133 191 191 191 325
 325 242 242 296 296 296 296 296 393 393 393 197 197 197 194 194 194 264 264 264
 264 264 291 133 133 133 133 133 133 325 325 51 296 296 296 296 296 296 393 393
 393 393 195 195 194 194 194 194 264 264 264 264 291 133 133 133 133 133 133 325
 51 51 51 296 296 296 296 332 332 393 393 195 195 195 194 194 194 194 194 194
 344 344 344 133 133 133 133 298 298 298 51 51 51 51 296 296 332 332 332 332
 332 195 195 195 195 194 194 194 194 194 344 344 344 344 133 133 298 298 298 51
 51 51 51 51 51 332 332 332 332 332 332 195 195 195 195 194 194 194 194 194
 344 344 344 344 37 37 298 298 298 51 51 51 51 51 51 332 332 332 332 332
 150 150 150 195 194 194 194 194 194 216 216 344 344 40 186 186 186 298 51 51
 51 51 51 51 51 176 176 176 176 150 150 150 150 150 194 194 194 194 216 216
 216 40 40 40 186 186 186 186 51 51 51 51 51 51 384 384 384 176 176 150
 150 150 150 150 150 194 194 216 216 216 216 40 40 40 186 186 186 392 114 114
 114 51 384 384 384 384 384 384 384 150 150 150 150 150 283 283 283 216 216 216
 216 40 40 40 186 186 392 336 336 336 336 238 384 384 384 384 384 384 384 150
 150 150 150 283 283 283 283 283 216 216 216 40 40 360 17 17 392 336 336 336
 336 238 238 384 384 384 384 384 384 384 150 150 283 283 283 283 283 283 283 216
 216 310 40 17 17 17 17 336 336 336 238 238 238 384 384 384 384 384 384 384
 150 283 283 283 283 283 283 283 283 283 121 277 277 17 17 17 336 336 336 336
 238 238 43 43 43 384 384 384 384 237 237 283 283 283 283 283 283 283 121 121
 121 277 277 277 17 17 17 336 336 336 238 43 43 43 43 43 384 384 237 237
 237 237 283 283 283 283 283 283 121 121 121 277 277 235 235 235 231 210 210 210
 210 43 43 43 43 43 384 237 237 237 237 237 237 299 299 299 283 283 121 121
 121 277 235 235 235 235 231 210 210 210 210 43 43 43 43 270 270 237 237 237
 237 237 237 299 299 299 299 311 121 121 308 235 235 235 235 235 231 231 210 210
 28 28 28 28 270 270 270 270 157 157 157 237 237 311 311 311 311 311 311 91
 91 235 235 235 235 235 231 231 231 210 28 28 28 28 270 270 270 157 157 157
 157 157 157 311 311 311 311 311 311 91 91 91 91 235 235 231 231 231 231 231
 28 28 28 28 288 288 288 157 157 157 157 157 157 11 11 311 311 311 311 91
 91 91 91 91 91 231 231 231 231 231 28 28 28 28 288 288 288 288 157 157
 157 157 369 11 11 11 11 311 348 348 91 91 91 91 91 60 60 60 60 60
 28 28 28 28 288 288 288 75 75 75 304 304 11 11 11 11 11 11 348 348
 348 91 91 91 91 60 60 60 60 60 102 102 102 132 75 75 75 75 75 75
 75 304 304 11 11 316 232 232 348 348 348 348 161 161 161 60 60 60 60 60
 102 102 102 132 75 75 75 75 75 75 75 304 304 223 223 232 232 232 232 348
 348 348 161 161 161 154 154 60 340 340 102 102 102 102 75 75 75 75 75 75
 75 304 223 223 223 232 232 232 232 232 348 161 161 161 161 154 154 340 340 340
 102 102 102 102 75 75 75 75 75 75 75 75 223 223 223 232 232 232 232 232
 379 379 161 161 161 154 154 93 93 102 372 102 242 242 242 75 75 75 75 75
 75 75 223 223 232 232 232 232 232 83 379 379 379 161 161 375 93 93 93 372
 372 242 242 242 242 242 75 75 75 75 75 197 197 197 345 232 83 83 83 83
 83 379 379 375 375 375 191 191 191 372 242 242 242 242 242 242 242 75 75 75
 197 197 197 197 197 83 83 83 83 83 83 83 379 375 375 191 191 191 191 372
 325 242 242 242 242 242 242 242 393 197 197 197 197 197 345 345 264 264 264 264
 264 264 264 264 342 191 191 191 325 325 325 325 242 242 242 296 296 296 393 393
 393 197 197 197 345 264 264 264 264 264 264 264 264 264 133 133 191 325 325 325
 325 325 242 296 296 296 296 296 393 393 393 197 197 197 197 264 264 264 264 264
 264 264 264 133 133 133 133 133 325 325 325 51 296 296 296 296 296 296 393 393
 393 393 197 197 195 194 194 264 264 264 264 264 264 133 133 133 133 133 325 325
 51 51 51 296 296 296 296 332 393 393 393 393 195 195 195 194 194 194 194 264
 344 344 344 133 133 133 133 298 298 298 51 51 51 51 296 296 332 332 332 393
 393 195 195 195 195 194 194 194 194 194 344 344 344 344 133 133 298 298 298 51
 51 51 51 51 51 332 332 332 332 332 393 195 195 195 195 194 194 194 194 194
 344 344 344 344 331 331 298 298 298 51 51 51 51 51 51 176 176 176 176 176
 150 150 195 195 195 194 29 29 29 216 216 344 344 331 331 331 331 331 51 51
 51 51 51 51 51 176 176 176 176 176 150 150 150 150 195 194 29 29 216 216
 216 216 40 40 186 331 331 114 114 114 114 51 51 51 51 176 176 176 176 176
 150 150 150 150 150 283 29 216 216 216 216 216 40 40 186 279 279 279 114 114
 114 51 51 384 384 384 176 176 176 176 150 150 150 150 283 283 283 216 216 216
 216 216 360 360 360 279 279 279 114 114 336 238 238 384 384 384 384 384 176 176
 150 150 150 283 283 283 283 283 216 216 216 360 360 360 360 279 279 336 336 336
 238 238 238 238 384 384 384 384 384 384 150 150 283 283 283 283 283 283 283 216
 310 310 360 360 360 279 279 336 336 336 238 238 238 238 384 384 384 384 384 97
 97 283 283 283 283 283 283 283 283 283 310 310 310 360 17 17 336 336 336 336
 238 238 238 43 43 384 384 318 318 97 97 97 283 283 283 283 283 283 121 121
 310 277 106 106 235 172 172 336 336 336 238 238 43 43 43 43 384 318 237 237
 237 237 283 283 283 283 283 283 121 121 121 106 106 235 235 172 172 172 172 210
 210 43 43 43 43 43 43 237 237 237 237 237 237 283 283 283 283 283 121 121
 121 106 235 235 235 231 231 231 210 210 210 28 43 43 43 270 270 237 237 237
 237 237 237 164 164 311 311 311 121 121 121 235 235 235 235 231 231 231 231 210
 231 28 28 28 270 270 270 270 157 237 237 237 237 164 311 311 311 311 204 204
 22 22 235 235 235 231 231 231 231 231 231 28 28 28 270 270 270 270 157 157
 157 157 237 164 311 311 311 311 204 204 22 22 91 235 235 231 231 231 231 231
 28 28 28 28 288 288 288 157 157 157 157 157 11 11 11 311 311 311 204 91
 91 91 91 91 231 231 231 231 231 231 28 28 28 28 288 288 288 288 157 157
 157 157 11 11 11 11 311 311 348 348 91 91 91 91 388 231 231 231 231 231
 28 28 132 132 288 288 288 75 75 75 75 304 11 11 11 316 316 316 348 348
 348 348 91 91 388 388 388 60 231 231 102 102 132 132 132 88 75 75 75 75
 75 75 316 316 316 316 316 232 348 348 348 348 161 161 388 388 388 388 388 231
 102 102 102 132 132 75 75 75 75 75 75 75 316 316 316 316 232 232 232 348
 348 348 161 161 161 388 388 388 388 102 102 102 102 102 75 75 75 75 75 75
 75 75 223 316 316 232 232 232 232 232 348 161 161 161 161 154 388 388 93 102
 102 102 102 102 75 75 75 75 75 75 75 75 345 345 345 232 232 232 232 232
 379 379 161 161 161 154 93 93 93 93 102 102 242 242 242 75 75 75 75 75
 75 75 197 345 345 232 232 232 232 83 379 379 379 161 161 154 93 93 93 93
 372 242 242 242 242 242 75 75 75 75 75 197 197 345 345 345 345 83 83 83
 83 379 379 161 161 191 191 93 93 93 325 242 242 242 242 242 242 75 75 75
 197 197 197 197 345 345 83 83 83 83 83 264 379 375 375 191 191 191 191 325
 325 325 242 242 242 242 127 393 393 197 197 197 197 197 345 345 264 264 264 264
 264 264 264 342 342 342 342 325 325 325 325 325 242 242 242 127 127 393 393 393
 393 197 197 197 345 345 264 264 264 264 264 264 264 342 342 342 342 325 325 325
 325 325 325 296 296 296 296 393 393 393 393 393 197 197 345 345 264 264 264 264
 264 264 264 342 342 342 342 325 325 325 325 325 51 296 296 296 296 393 393 393
 393 393 197 195 162 162 162 264 264 264 264 264 264 342 342 342 342 133 325 325
 51 51 51 51 296 296 296 332 393 393 393 393 195 195 162 162 162 162 264 264
 264 264 344 342 342 342 331 331 298 325 51 51 51 51 51 296 332 332 393 393
 393 195 195 195 162 162 162 162 194 194 344 344 344 331 331 331 331 331 51 51
 51 51 51 51 51 51 332 332 332 332 393 195 195 195 195 162 162 29 29 194
 344 344 344 331 331 331 331 331 51 51 51 51 51 51 51 176 176 176 176 176
 150 195 195 195 195 162 29 29 29 216 216 20 331 331 331 331 331 331 51 51
 51 51 51 51 51 176 176 176 176 176 150 150 150 150 135 135 29 29 29 216
 20 20 20 331 331 331 331 331 114 114 114 51 51 51 51 176 176 176 176 176
 150 150 150 150 135 135 135 216 216 216 216 20 20 360 360 279 279 279 114 114
 114 51 51 51 384 176 176 176 176 176 150 150 150 150 135 135 135 135 216 216
 216 216 360 360 360 279 279 279 114 114 238 238 238 238 384 384 176 176 176 176
 150 150 150 283 283 283 283 283 283 216 216 360 360 360 360 279 279 279 279 336
 238 238 238 238 384 384 318 318 318 97 97 150 283 283 283 283 283 283 283 310
 310 310 360 360 360 279 279 279 336 336 238 238 238 238 384 318 318 318 318 97
 97 97 283 283 283 283 283 283 283 310 310 310 310 360 360 172 172 172 336 238
 238 238 238 238 43 318 318 318 318 97 97 97 283 283 283 283 283 283 121 121
 310 310 310 360 172 172 172 172 172 238 238 238 238 43 43 318 318 318 318 97
 97 97 97 283 283 283 283 283 121 121 106 106 106 235 235 172 172 172 172 172
 238 238 43 43 43 43 318 318 237 237 237 237 237 164 164 283 283 283 121 121
 106 106 106 235 235 172 172 172 172 172 231 28 43 43 43 270 270 237 237 237
 237 237 164 164 164 164 311 311 204 204 22 235 235 235 235 231 231 231 231 231
 231 28 28 278 270 270 270 270 237 237 237 237 164 164 164 311 311 311 204 204
 22 22 22 235 235 231 231 231 231 231 231 28 278 278 278 270 270 270 157 157
 157 157 164 164 311 311 311 311 204 204 22 22 22 235 231 231 231 231 231 231
 231 28 278 278 278 288 52 52 52 157 157 157 11 11 311 311 311 311 204 204
 22 22 22 91 231 231 231 231 231 231 231 28 28 278 288 288 52 52 52 52
 157 282 282 11 11 11 311 311 348 348 91 91 91 388 388 388 231 231 231 231
 231 132 132 132 132 88 52 52 52 52 52 316 316 316 316 316 316 316 348 348
 348 348 91 388 388 388 388 388 231 231 102 132 132 132 132 88 88 75 75 75
 75 75 316 316 316 316 316 316 348 348 348 348 388 388 388 388 388 388 388 231
 102 102 132 132 132 88 75 75 75 75 75 75 316 316 316 316 316 232 232 348
 348 348 161 388 388 388 388 388 388 102 102 102 102 102 75 75 75 75 75 75
 75 75 316 316 316 316 232 232 232 232 348 161 161 161 388 388 388 388 388 102
 102 102 6 6 193 193 75 75 75 75 75 75 345 345 345 345 232 232 232 232
 33 33 33 161 388 388 365 365 93 93 102 6 6 6 193 193 193 75 75 75
 75 345 345 345 345 345 232 232 232 33 33 33 33 161 388 388 365 365 93 93
 6 6 6 242 242 193 193 75 75 75 197 197 345 345 345 345 345 264 264 264
 264 33 33 33 111 111 365 365 93 93 325 242 242 242 242 242 193 75 75 197
 197 197 197 345 345 345 345 264 264 264 264 264 33 33 111 111 111 325 325 325
 325 325 242 242 127 127 127 350 350 350 350 197 197 345 345 345 345 264 264 264
 264 264 264 342 342 111 111 325 325 325 325 325 325 127 127 127 127 127 393 393
 393 197 197 345 345 345 264 264 264 264 264 264 264 342 342 342 342 325 325 325
 325 325 325 127 127 127 127 393 393 393 393 393 197 345 345 345 264 264 264 264
 264 264 342 342 342 342 342 342 325 325 325 325 51 127 127 127 296 393 393 393
 393 393 393 162 162 162 162 264 264 264 264 264 342 342 342 342 342 342 325 325
 51 51 51 51 273 296 201 201 393 393 393 393 195 162 162 162 162 162 264 264
 264 27 27 342 342 342 331 331 331 325 51 51 51 51 51 201 201 201 201 393
 393 195 195 162 162 162 162 162 264 264 27 27 27 331 331 331 331 331 331 51
 51 51 51 51 51 51 201 201 201 393 393 195 195 195 162 162 162 29 29 29
 27 27 27 331 331 331 331 331 331 51 51 51 51 51 51 176 176 176 176 176
 150 163 195 195 162 162 29 29 29 29 20 20 20 331 331 331 331 331 331 51
 51 51 51 51 51 176 176 176 176 176 150 150 150 135 135 135 135 29 29 20
 20 20 20 331 331 331 331 331 114 114 114 51 51 51 51 176 176 176 176 176
 150 150 150 135 135 135 135 135 216 20 20 20 20 20 368 279 279 279 114 114
 114 51 51 51 176 176 176 176 176 176 150 150 150 135 135 135 135 135 386 386
 20 20 20 360 360 279 279 279 279 114 238 238 238 238 384 176 176 176 176 176