# vtk DataFile Version 2.0
Data set from IO Version 6.4.197.9a0dee2
ASCII

DATASET RECTILINEAR_GRID
DIMENSIONS 31 31 31
X_COORDINATES 31 float
-4.116666 4.116666 12.349998 20.583330 28.816664 37.049999 45.283329 53.516663 61.749996 69.983322 78.216660 86.449989 94.683319 102.916656 111.149986 119.383324 127.616653 135.849991 144.083313 152.316650 160.549988 
168.783310 177.016647 185.249985 193.483307 201.716644 209.949982 218.183319 226.416641 234.649979 242.883316 
Y_COORDINATES 31 float
-4.116666 4.116666 12.349998 20.583330 28.816664 37.049999 45.283329 53.516663 61.749996 69.983322 78.216660 86.449989 94.683319 102.916656 111.149986 119.383324 127.616653 135.849991 144.083313 152.316650 160.549988 
168.783310 177.016647 185.249985 193.483307 201.716644 209.949982 218.183319 226.416641 234.649979 242.883316 
Z_COORDINATES 31 float
-4.116666 4.116666 12.349998 20.583330 28.816664 37.049999 45.283329 53.516663 61.749996 69.983322 78.216660 86.449989 94.683319 102.916656 111.149986 119.383324 127.616653 135.849991 144.083313 152.316650 160.549988 
168.783310 177.016647 185.249985 193.483307 201.716644 209.949982 218.183319 226.416641 234.649979 242.883316 
CELL_DATA 27000
SCALARS FeatureIds int 1
LOOKUP_TABLE default
 399 399 189 189 189 189 189 189 189 299 299 299 299 299 299 311 311 311 211 211
 211 211 211 211 211 399 399 399 399 399 399 399 189 189 189 189 189 189 189 299
 299 299 299 299 299 311 311 311 211 211 211 211 211 211 211 399 399 399 399 399
 399 90 260 260 189 189 189 189 34 34 34 299 299 299 299 311 311 311 141 141
 211 211 211 211 211 399 399 399 399 399 229 90 90 260 260 189 189 189 34 34
 34 158 158 158 158 158 16 16 141 141 141 211 211 211 211 211 229 229 229 229
 229 90 90 260 260 260 377 377 34 34 34 158 158 158 158 158 16 16 141 141
 141 141 211 211 267 267 229 229 229 229 229 90 90 90 260 377 377 377 377 197
 197 158 158 158 158 158 16 16 141 141 141 141 141 267 267 267 267 229 229 229
 229 229 90 90 181 181 181 377 197 197 197 158 158 158 158 16 16 16 16 141
 141 141 267 267 267 267 267 267 229 229 229 229 90 257 181 181 181 151 151 197
 197 158 158 158 158 16 16 16 16 141 141 141 267 267 267 267 267 267 267 229
 229 229 257 257 181 181 181 151 151 151 151 151 363 363 363 363 360 360 360 360
 339 339 267 267 267 267 267 267 267 267 96 96 257 257 257 257 181 151 151 151
 151 151 363 363 363 363 360 360 360 339 339 339 339 267 267 267 267 267 267 96
 96 96 96 257 257 257 151 151 151 151 151 151 363 363 363 363 360 360 360 339
 339 339 339 339 267 267 267 267 96 96 96 96 96 100 100 100 151 151 151 151
 151 151 363 363 363 304 360 360 360 339 339 339 339 339 267 267 267 96 96 96
 96 96 100 100 100 100 100 151 151 151 151 41 41 41 41 304 304 341 339 339
 339 339 339 339 339 267 96 96 96 96 96 100 100 100 100 100 100 100 210 210
 210 41 41 41 41 304 304 341 341 339 339 339 339 339 339 280 280 96 96 96
 100 100 100 100 100 100 100 100 100 210 41 41 41 41 41 304 341 341 341 341
 339 339 339 226 245 280 280 280 280 96 100 100 100 100 100 100 100 100 163 163
 150 150 217 217 217 217 341 341 341 226 226 226 226 226 245 245 280 280 280 280
 98 98 100 100 100 100 398 398 398 150 150 150 217 217 217 217 341 341 341 226
 226 226 226 226 245 245 280 280 280 290 98 98 98 100 398 398 398 398 398 287
 287 217 217 217 217 217 341 341 341 226 226 226 226 226 245 245 245 245 290 290
 98 98 98 398 398 398 398 398 287 287 287 171 171 217 217 217 217 341 226 226
 226 226 226 226 245 245 245 245 290 290 98 98 98 398 398 398 398 398 287 287
 287 171 171 171 171 171 46 46 46 226 226 226 226 226 245 245 245 245 109 109
 243 243 243 398 398 398 398 179 287 287 287 171 171 171 171 46 46 46 46 46
 226 126 126 126 126 245 109 109 109 109 243 243 243 243 398 398 179 179 179 287
 287 171 171 171 171 46 46 46 46 125 125 126 126 126 126 109 109 109 109 109
 243 243 243 243 398 179 179 179 179 287 287 2 2 2 2 46 46 46 125 125
 125 125 126 126 126 109 109 109 109 109 3 243 243 243 134 179 179 179 179 287
 2 2 2 2 2 46 46 125 125 125 125 125 126 126 215 215 109 3 3 3
 3 3 3 3 134 134 134 7 7 7 7 384 384 384 384 384 271 125 125 125
 125 125 125 215 215 215 3 3 3 3 3 3 3 189 189 189 189 7 7 7
 7 384 384 384 384 384 153 321 153 153 153 153 72 392 392 215 3 3 3 3
 3 3 189 189 189 189 189 7 7 7 7 7 384 384 384 384 153 153 153 153
 153 72 72 392 392 392 3 3 3 3 3 3 189 189 189 189 189 189 7 7
 7 7 384 384 384 140 140 140 153 153 153 72 72 392 392 399 399 399 399 3
 399 3 189 189 189 189 189 189 7 7 7 7 7 299 299 140 140 140 153 153
 72 72 72 392 399 399 399 399 399 399 399 399 189 189 189 189 189 189 189 7
 299 299 299 299 299 298 140 140 153 153 72 211 211 211 399 399 399 399 399 399
 399 371 371 189 189 189 189 189 189 299 299 299 299 299 311 311 311 311 191 211
 211 211 211 211 211 399 399 399 399 399 399 371 189 189 189 189 189 189 189 299
 299 299 299 299 311 311 311 311 191 211 211 211 211 211 211 399 399 399 399 399
 399 371 260 260 189 189 189 189 189 299 299 299 299 299 311 311 311 311 141 141
 141 211 211 211 211 399 399 399 399 399 229 90 260 260 260 189 189 189 34 34
 34 299 158 158 158 311 311 141 141 141 141 141 211 211 211 267 399 229 229 229
 229 90 90 260 260 19 377 377 377 325 325 158 158 158 158 16 16 16 141 141
 141 141 141 211 267 267 267 229 229 229 229 90 90 90 19 19 377 377 377 325
 325 158 158 158 158 16 16 16 141 141 141 141 141 267 267 267 267 267 229 229
 229 229 90 257 19 19 377 377 377 325 325 158 158 158 158 16 16 16 141 141
 141 141 141 267 267 267 267 267 267 229 229 229 257 257 257 257 181 151 151 151
 151 151 158 158 158 16 16 16 141 141 141 141 267 267 267 267 267 267 267 267
 229 257 257 257 257 257 181 151 151 151 151 151 363 363 363 16 360 360 141 141
 141 141 267 267 267 267 267 267 267 267 96 257 257 257 257 257 257 151 151 151
 151 151 363 363 363 363 360 360 360 231 339 339 339 267 267 267 267 267 267 267
 96 257 257 257 257 257 257 151 151 151 151 151 363 363 363 107 360 360 231 231
 339 339 339 339 267 267 267 267 96 96 96 257 257 257 257 257 257 151 151 151
 151 151 363 363 363 304 360 360 231 231 339 339 339 339 267 267 267 96 96 96
 96 96 100 100 100 100 100 151 151 210 151 151 41 41 41 304 304 341 231 339
 339 339 339 339 339 318 96 96 96 96 96 100 100 100 100 100 100 210 210 210
 210 41 41 41 41 304 304 341 37 37 339 339 339 339 318 318 145 280 96 96
 100 100 100 100 100 100 100 100 210 210 163 41 41 41 41 304 341 341 341 37
 226 226 226 318 245 245 280 280 280 96 98 100 100 100 100 100 100 100 163 163
 163 217 217 217 217 217 341 341 341 226 226 226 226 226 245 245 280 280 280 280
 98 98 98 100 100 100 398 398 163 163 163 217 217 217 217 217 341 341 341 226
 226 226 226 245 245 245 245 280 280 290 98 98 98 100 398 398 398 398 287 287
 287 217 217 217 217 217 217 341 226 226 226 226 226 36 245 245 245 245 290 98
 98 98 98 398 398 398 398 398 287 287 287 217 217 217 217 217 217 46 226 226
 226 226 226 36 245 245 245 245 245 98 98 98 98 98 398 398 398 398 287 287
 287 287 217 217 217 217 46 46 46 226 226 226 226 36 245 245 245 245 180 180
 243 243 243 243 398 398 398 287 287 287 287 287 171 171 171 46 46 46 46 46
 226 126 126 126 245 245 180 180 180 180 243 243 243 243 186 186 186 287 287 287
 287 287 171 2 171 46 46 46 46 46 125 126 126 126 126 180 180 180 180 243
 243 243 243 243 186 186 186 179 179 287 287 2 2 2 2 46 46 46 46 125
 125 126 126 126 215 215 180 180 180 243 243 243 243 243 134 134 134 179 273 273
 273 2 2 2 2 2 46 46 46 125 125 125 215 215 215 215 215 3 3 3
 3 3 3 3 134 134 134 273 273 273 273 2 2 2 2 2 321 321 153 153
 153 125 215 215 215 215 3 3 3 3 3 3 3 3 134 134 134 273 273 273
 273 384 384 384 384 384 321 321 153 153 153 72 72 215 215 215 3 3 3 3
 3 3 3 189 189 189 189 189 273 273 273 273 384 384 384 153 153 153 153 153
 153 72 72 72 215 215 3 3 3 3 3 3 189 189 189 189 189 189 7 7
 7 7 384 384 384 298 153 153 153 153 72 72 72 72 399 399 399 399 399 3
 399 371 189 189 189 189 189 189 189 7 7 299 299 299 298 298 298 153 153 153
 72 72 72 72 399 399 399 399 399 399 399 371 371 189 189 189 189 189 189 7
 299 299 299 299 299 298 298 298 298 153 72 72 211 211 399 399 399 399 399 399
 371 371 371 189 189 189 189 189 189 299 299 299 299 299 311 311 311 298 191 191
 211 211 211 211 156 156 399 399 399 399 371 371 371 189 189 189 189 189 189 299
 299 299 299 299 311 311 311 191 191 191 141 211 211 211 156 156 399 399 399 399
 371 371 260 260 189 189 189 189 189 299 299 299 299 299 311 311 311 191 141 141
 141 141 211 211 1 156 399 399 399 399 229 90 260 260 260 19 19 189 325 34
 299 299 299 299 311 311 311 141 141 141 141 141 141 1 1 1 399 229 229 229
 229 90 260 260 19 19 19 377 325 325 325 325 158 158 16 16 16 16 141 141
 141 141 141 1 1 267 267 255 255 229 229 90 90 19 19 19 19 377 325 325
 325 325 158 158 16 16 16 16 141 141 141 141 141 141 267 267 267 255 255 255
 149 149 149 19 19 19 19 377 325 325 325 325 158 158 16 16 16 16 141 141
 141 141 141 267 267 267 267 255 255 255 149 149 257 257 257 19 19 151 151 151
 151 151 158 158 16 16 16 16 141 141 141 141 141 267 267 267 267 267 267 255
 149 257 257 257 257 257 257 151 151 151 151 151 363 363 107 107 16 16 141 141
 141 141 141 267 267 267 267 267 267 267 257 257 257 257 257 257 257 151 151 151
 151 151 363 107 107 107 107 360 231 231 231 231 339 267 267 267 267 267 267 267
 96 257 257 257 257 257 257 151 151 151 151 151 151 363 107 107 107 231 231 231
 231 231 339 339 267 267 267 267 96 96 96 257 257 257 257 257 257 151 151 151
 151 151 151 363 107 107 107 231 231 231 231 231 339 339 267 267 267 267 96 96
 96 257 100 100 100 257 257 210 210 210 210 210 41 41 107 107 107 231 231 37
 231 339 339 318 318 318 145 145 145 96 96 100 100 100 100 100 100 210 210 210
 210 210 41 41 41 78 78 37 37 37 37 37 318 318 318 318 145 145 145 145
 68 100 100 100 100 100 100 210 210 210 163 163 217 41 217 78 78 341 37 37
 37 37 318 318 318 318 145 145 145 145 98 98 100 100 100 100 100 163 163 163
 163 217 217 217 217 78 78 341 341 37 226 226 226 318 318 318 318 318 280 280
 98 98 98 100 100 100 398 163 163 163 163 217 217 217 217 217 78 341 341 226
 226 226 226 318 245 245 245 245 280 290 98 98 98 100 398 398 398 212 163 163
 163 217 217 217 217 217 217 9 9 226 226 226 36 36 245 245 245 245 245 98
 98 98 98 98 398 398 398 212 287 287 287 217 217 217 217 217 9 9 9 9
 226 226 36 36 245 245 245 245 245 98 98 98 98 186 186 186 398 287 287 287
 287 287 217 217 217 46 46 46 9 9 226 226 226 36 245 245 245 180 180 180
 243 243 243 186 186 186 186 287 287 287 287 287 171 171 171 46 46 46 46 46
 46 126 126 126 180 180 180 180 180 180 243 243 243 186 186 186 186 186 287 287
 287 275 2 2 46 46 46 46 46 46 46 126 126 126 180 180 180 180 180 243
 243 243 243 243 186 186 186 186 186 287 273 2 2 2 2 46 46 46 46 46
 125 126 215 215 215 215 180 180 180 243 243 243 243 243 134 134 186 186 273 273
 273 2 2 2 2 2 46 46 46 46 125 215 215 215 215 215 180 180 3 3
 3 3 243 134 134 134 134 273 273 273 273 273 2 2 2 2 321 321 153 153
 153 153 215 215 215 215 215 3 3 3 3 3 3 134 134 134 134 273 273 273
 273 273 384 384 384 321 321 321 153 153 153 153 215 215 215 215 215 3 3 3
 3 3 3 189 134 134 134 273 273 273 273 273 273 384 384 153 153 153 153 153
 153 72 72 215 215 215 215 3 3 3 3 371 371 189 189 189 189 189 273 273
 273 273 273 384 298 298 298 153 153 153 72 72 72 72 156 156 399 399 3 3
 371 371 371 189 189 189 189 189 189 7 7 299 299 298 298 298 298 298 153 153
 72 72 72 156 156 156 399 399 399 399 371 371 371 189 189 189 189 189 189 189
 299 299 299 299 311 298 298 298 298 153 72 72 72 156 156 156 156 399 399 399
 371 371 371 189 189 189 189 189 189 189 299 299 299 311 311 311 311 191 191 191
 191 211 156 156 156 156 156 156 399 371 371 371 371 189 189 189 189 189 189 129
 299 299 299 311 311 205 311 191 191 191 141 141 156 156 156 156 156 156 399 399
 371 371 371 260 189 189 189 189 129 129 129 129 299 311 311 311 311 191 191 141
 141 141 1 1 1 1 156 156 399 399 316 316 316 19 19 19 19 129 129 129
 129 129 129 311 311 311 311 141 141 141 141 141 1 1 1 1 1 255 255 255
 316 316 316 19 19 19 19 325 325 325 325 325 325 311 311 16 16 141 141 141
 141 141 1 1 1 1 255 255 255 255 316 316 316 19 19 19 19 325 325 325
 325 325 325 158 16 16 16 16 141 141 141 141 141 1 1 1 255 255 255 255
 149 149 149 4 19 19 19 325 325 325 325 325 325 158 16 16 16 16 141 141
 141 141 141 1 267 267 255 255 255 255 149 149 149 257 4 4 4 325 325 325
 325 325 283 107 107 16 16 141 141 141 141 141 141 267 267 267 255 255 255 255
 149 149 257 257 257 257 4 87 87 151 151 151 107 107 107 107 107 141 141 141
 141 141 141 176 267 267 267 255 255 255 257 257 257 257 257 257 87 87 87 151
 151 151 107 107 107 107 107 231 231 231 231 231 231 176 267 267 267 267 267 285
 119 257 257 257 257 257 87 87 87 151 151 151 364 107 107 107 107 231 231 231
 231 231 231 176 176 176 267 285 285 119 119 119 257 257 257 257 87 87 210 210
 364 364 364 107 107 107 107 231 231 231 231 231 231 176 176 176 267 145 145 119
 119 119 119 257 257 257 210 210 210 210 210 210 364 107 107 107 107 231 231 37
 37 231 231 318 318 318 145 145 145 145 68 52 52 100 100 20 210 210 210 210
 210 210 210 78 78 78 78 357 37 37 37 37 318 318 318 318 145 145 145 145
 68 52 52 100 100 20 20 210 210 163 163 163 163 78 78 78 78 78 37 37
 37 37 318 318 318 318 145 145 145 145 68 68 68 68 100 20 20 163 163 163
 163 163 217 232 78 78 78 78 357 357 357 318 318 318 318 318 318 318 145 145
 68 68 68 68 100 212 212 212 163 163 163 217 217 232 78 78 78 78 357 357
 226 226 318 318 318 318 318 318 318 68 98 98 224 224 224 212 212 212 212 163
 275 275 232 232 232 232 78 9 9 9 226 226 318 318 318 245 245 370 370 370
 98 98 224 224 224 212 212 212 212 275 275 275 275 232 232 232 9 9 9 9
 226 226 36 36 245 245 245 370 370 370 243 224 224 224 224 186 212 212 212 287
 275 275 275 275 232 46 46 9 9 9 9 226 348 36 245 245 180 180 180 180
 243 243 243 186 186 186 186 186 212 275 275 275 275 275 275 46 46 46 9 9
 9 348 348 348 180 180 180 180 180 180 243 243 243 186 186 186 186 186 186 275
 275 275 275 275 275 46 46 46 46 46 46 126 126 215 180 180 180 180 180 180
 243 243 243 186 186 186 186 186 186 273 275 275 275 2 2 46 46 46 46 46
 215 215 215 215 215 215 180 180 180 243 243 243 243 134 134 186 186 186 273 273
 273 273 2 2 2 389 46 46 46 46 215 215 215 215 215 215 180 180 180 3
 3 3 243 134 134 134 134 273 273 273 273 273 2 2 2 389 321 321 153 153
 153 215 215 215 215 215 215 3 3 3 3 3 3 134 134 134 134 273 273 273
 273 273 273 269 269 321 321 153 153 153 153 49 215 215 215 215 160 3 3 3
 3 371 371 134 134 134 134 273 273 273 273 273 273 269 269 298 153 153 153 153
 153 49 49 215 215 215 160 3 3 3 371 371 371 189 189 189 189 189 273 273
 273 273 273 298 298 298 298 298 153 153 153 72 49 49 156 156 156 399 3 3
 371 371 371 189 189 189 189 189 189 273 273 273 299 298 298 298 298 298 298 153
 72 72 72 156 156 156 156 399 399 371 371 371 371 189 189 189 189 189 189 189
 299 299 299 311 311 298 298 298 298 298 195 72 156 156 156 156 156 156 399 371
 371 371 371 371 189 189 189 189 189 129 333 299 299 344 311 311 298 298 191 67
 394 394 156 156 156 156 156 335 335 371 371 371 371 133 189 189 189 189 129 129
 129 299 299 311 311 311 311 191 191 67 394 394 1 1 156 156 156 156 335 371
 371 371 133 133 133 189 320 129 129 129 129 129 129 311 311 311 311 191 141 141
 394 394 1 1 1 1 1 156 255 255 316 316 316 316 19 320 320 129 129 129
 129 129 129 311 311 311 311 141 141 141 141 141 1 1 1 1 1 255 255 255
 316 316 316 316 19 320 320 320 129 129 129 129 129 311 311 16 141 141 141 141
 141 141 1 1 1 1 255 255 255 255 316 316 316 316 320 320 320 320 325 325
 325 129 129 12 12 12 141 141 141 141 141 141 1 1 1 1 255 255 255 255
 316 316 316 4 4 4 320 320 325 325 325 325 283 283 12 12 12 141 141 141
 141 141 141 1 1 255 255 255 255 255 149 149 4 4 4 4 4 4 325 325
 325 283 283 283 107 12 12 141 141 141 141 141 141 1 176 255 255 255 255 255
 149 257 257 257 4 4 4 87 87 332 332 283 283 107 107 107 107 141 141 141
 141 141 176 176 176 176 255 255 285 285 119 257 257 257 257 257 87 87 87 332
 332 364 107 107 107 107 107 231 231 231 231 231 176 176 176 176 285 285 285 285
 119 119 257 257 257 257 87 87 87 332 364 364 364 107 107 107 107 231 231 231
 231 231 176 176 176 176 285 285 285 119 119 119 119 257 257 257 87 87 87 210
 364 364 364 107 107 107 107 231 231 231 231 357 357 176 176 176 285 285 285 119
 119 119 119 119 257 257 20 87 210 210 364 364 364 364 107 107 107 357 357 357
 357 357 357 318 318 318 145 145 145 119 68 52 68 68 20 20 20 20 210 210
 210 210 364 78 78 78 78 357 357 357 357 357 318 318 318 318 145 145 145 145
 68 52 68 68 20 20 20 20 163 163 163 163 232 78 78 78 78 78 357 357
 357 357 318 318 318 318 318 145 145 68 68 68 68 68 20 20 20 20 163 163
 163 232 232 232 78 78 78 78 357 357 357 357 318 318 318 318 318 318 145 68
 68 68 68 68 68 212 212 212 163 163 163 232 232 232 232 78 78 78 357 357
 357 318 318 318 318 318 318 370 370 68 68 68 224 224 224 212 212 212 212 275
 275 61 232 232 232 232 78 9 9 9 401 401 318 318 318 318 370 370 370 370
 68 224 224 224 224 212 212 212 212 275 275 275 275 232 232 232 232 9 9 9
 9 401 318 318 245 245 370 370 370 370 224 224 224 224 224 212 212 212 212 275
 275 275 275 275 232 232 327 9 9 9 9 348 348 348 348 245 180 180 180 180
 243 224 224 224 224 354 354 212 212 275 275 275 275 275 275 275 327 327 327 327
 348 348 348 348 348 180 180 180 180 180 243 243 224 224 354 354 186 186 212 275
 275 275 275 275 275 327 327 327 327 327 348 348 348 348 348 180 180 180 180 180
 243 243 243 354 354 354 354 186 186 275 275 275 275 275 389 389 327 327 327 327
 327 215 215 215 215 215 180 180 180 180 243 243 243 354 354 354 354 148 148 148
 148 148 275 389 389 389 389 327 327 327 49 215 215 215 215 215 180 180 180 3
 236 236 236 134 134 134 134 148 148 148 148 148 269 269 269 389 389 327 195 195
 49 49 215 215 215 160 160 160 3 3 236 236 236 134 134 134 134 148 148 148
 148 148 269 269 269 389 389 153 195 195 49 49 49 215 215 160 160 160 3 3
 371 371 371 134 134 134 134 148 148 273 148 148 269 269 269 269 298 195 195 195
 49 49 49 49 160 160 160 160 3 3 371 371 371 371 154 154 189 189 273 273
 273 148 269 269 344 298 298 298 195 195 195 49 49 49 160 160 160 160 371 371
 371 371 371 371 154 154 189 189 189 273 273 333 344 344 344 298 298 298 195 195
 195 49 49 49 156 156 156 335 335 371 371 371 371 371 154 154 189 189 189 333
 333 333 344 344 344 298 298 298 298 195 195 195 49 156 156 156 156 335 335 371
 371 371 133 133 154 154 154 154 333 333 333 333 333 344 344 344 344 343 343 67
 394 394 394 156 156 156 156 335 335 371 371 133 133 133 133 301 301 129 129 129
 333 333 333 344 344 311 343 343 67 67 394 394 1 1 156 156 156 156 335 371
 371 133 133 133 133 301 301 129 129 129 129 129 129 344 311 311 343 343 394 394
 394 394 1 1 1 1 1 73 73 73 316 316 133 133 301 301 320 129 129 129
 129 129 129 317 317 317 317 141 141 394 394 394 1 1 1 1 1 1 255 255
 316 316 316 316 320 320 320 129 129 129 129 129 129 129 317 317 12 141 141 141
 141 141 1 1 1 1 255 255 255 255 316 316 316 316 320 320 320 320 129 129
 129 129 129 12 12 12 12 12 141 141 141 141 1 1 1 1 255 255 255 255
 316 316 316 4 4 320 320 320 203 203 203 283 283 283 12 12 12 12 141 141
 141 141 1 1 1 255 255 255 255 255 390 316 4 4 4 4 4 4 203 203
 203 283 283 283 12 12 12 12 141 141 141 141 141 176 176 255 255 255 255 390
 390 257 4 4 4 4 4 87 87 332 332 283 283 283 107 107 12 12 141 141
 141 141 176 176 176 176 285 285 285 285 285 119 257 257 4 4 87 87 87 332
 332 364 283 283 107 107 107 12 231 231 231 231 176 176 176 176 285 285 285 285
 119 119 119 257 257 257 87 87 87 332 364 364 364 107 107 107 107 231 231 231
 357 357 176 176 176 176 285 285 285 285 119 119 119 119 257 257 244 244 244 364
 364 364 364 364 107 107 107 357 357 357 357 357 357 176 176 176 285 285 285 119
 119 119 119 119 257 20 20 244 244 364 364 364 364 364 256 107 357 357 357 357
 357 357 357 173 173 173 173 145 145 119 119 119 119 119 20 20 20 20 20 210
 210 364 256 256 256 78 78 357 357 357 357 357 318 318 318 318 318 145 145 145
 68 68 68 68 20 20 20 20 310 310 310 310 256 256 78 78 78 357 357 357
 357 357 318 318 318 318 318 145 145 68 68 68 68 68 20 20 20 20 310 310
 310 310 256 256 78 78 78 357 357 357 357 357 318 318 318 318 318 318 199 68
 68 68 68 68 20 20 20 212 310 310 310 61 232 232 232 232 78 357 357 357
 401 401 318 318 318 318 370 370 370 68 68 68 224 224 224 212 212 212 212 275
 61 61 232 232 232 232 78 9 9 357 401 401 401 318 318 318 370 370 370 370
 68 224 224 224 224 212 212 212 212 275 275 275 275 232 232 232 232 9 9 9
 401 401 401 348 348 318 370 370 370 370 224 224 224 224 224 354 212 212 212 275
 275 275 275 275 232 232 327 327 327 327 348 348 348 348 348 348 370 370 370 370
 224 224 224 224 224 354 354 212 212 275 275 275 275 275 275 327 327 327 327 327
 348 348 348 348 348 348 180 180 270 270 243 224 224 224 354 354 354 354 212 275
 275 275 275 275 275 327 327 327 327 327 348 348 348 348 348 348 180 180 270 270
 243 236 243 354 354 354 354 354 354 275 275 275 275 275 389 389 327 327 327 327
 348 348 348 348 348 348 180 180 270 270 236 236 236 354 354 354 354 148 148 148
 148 148 275 389 389 389 389 327 327 327 49 49 348 348 348 160 160 180 270 206
 236 236 236 236 31 31 31 148 148 148 148 148 269 269 269 389 389 327 195 195
 49 49 49 215 160 160 160 160 206 206 236 236 236 236 31 31 31 148 148 148
 148 148 269 269 269 389 389 195 195 195 49 49 49 49 160 160 160 160 206 206
 236 236 236 236 31 31 31 148 148 148 148 148 269 269 269 269 195 195 195 195
 195 49 49 49 160 160 160 160 206 206 371 371 371 154 154 154 154 148 148 148
 148 148 269 344 344 344 344 195 195 195 195 49 49 49 49 160 160 160 335 371
 371 371 371 154 154 154 154 154 148 333 333 333 333 344 344 344 344 195 195 195
 195 195 49 49 156 156 335 335 335 371 371 371 371 154 154 154 154 189 333 333
 333 333 333 344 344 344 344 298 195 195 195 195 195 156 156 156 335 335 335 371
 371 371 133 133 154 154 154 154 333 333 333 333 333 344 344 344 343 343 343 394
 394 394 394 156 400 400 400 335 335 371 371 133 133 133 133 301 301 301 333 333
 333 333 333 344 344 343 343 343 343 394 394 394 394 1 400 400 400 73 73 73
 133 133 133 133 301 301 301 301 129 129 129 129 129 317 317 317 343 343 343 394
 394 394 394 1 1 1 73 73 73 73 316 316 133 133 301 301 301 301 129 129
 129 129 129 317 317 317 317 343 343 394 394 394 1 1 1 1 73 73 73 73
 316 316 316 301 301 301 301 129 129 129 129 129 129 317 317 317 12 12 12 141
 141 141 1 1 1 1 1 255 255 316 316 316 316 316 320 320 320 320 129 129
 129 129 129 12 12 12 12 12 12 141 141 152 152 1 1 1 255 255 255 390
 390 316 316 4 320 320 320 203 203 203 203 283 283 283 12 12 12 12 12 141
 141 152 152 152 152 255 255 255 390 390 390 390 4 4 4 4 4 203 203 203
 203 283 283 283 12 12 12 12 12 141 141 152 152 152 176 176 255 390 390 390
 390 390 4 4 4 4 4 203 203 203 203 283 283 283 284 12 12 12 12 141
 141 152 176 176 176 176 285 285 285 390 285 119 119 358 4 4 4 87 332 332
 332 283 283 283 284 284 284 12 12 166 39 39 39 176 176 176 285 285 285 285
 119 119 119 358 4 244 244 244 244 332 364 364 364 364 284 284 284 284 231 231
 357 39 39 176 176 176 285 285 285 285 119 119 119 119 257 244 244 244 244 244
 364 364 364 364 284 107 284 357 357 357 357 39 39 39 173 173 285 285 285 285
 119 119 119 119 20 20 244 244 244 244 364 364 364 364 256 256 357 357 357 357
 357 39 39 39 173 173 173 173 285 119 119 119 119 119 20 20 20 20 310 310
 310 364 256 256 256 256 78 357 357 357 357 357 39 173 173 173 173 173 199 199
 68 68 68 68 20 20 20 20 310 310 310 310 256 256 256 256 78 357 357 357
 357 357 318 318 173 173 173 173 199 199 68 68 68 68 20 20 20 20 310 310
 310 310 256 256 256 256 78 319 357 357 357 401 401 318 318 318 318 199 199 199
 68 68 68 68 20 20 20 20 310 310 310 310 256 256 232 232 319 319 319 319
 401 401 401 318 318 318 370 370 199 199 68 68 68 224 224 212 212 212 310 310
 275 61 232 232 232 232 319 319 319 319 401 401 401 401 318 318 370 370 370 370
 309 309 224 224 224 224 212 212 124 124 275 275 275 232 232 232 319 319 319 319
 401 401 401 348 348 348 370 370 370 370 309 224 224 224 224 354 212 212 124 275
 275 275 275 275 232 232 327 327 327 319 348 348 348 348 348 348 348 370 370 270
 309 224 224 224 224 354 354 354 138 275 275 275 275 275 275 327 327 327 327 327
 348 348 348 348 348 348 348 270 270 270 309 224 224 224 354 354 354 354 138 138
 275 275 275 275 275 327 327 327 327 327 348 348 348 348 348 348 348 270 270 270
 236 236 236 354 354 354 354 354 138 138 138 275 275 275 389 389 327 327 327 327
 348 348 348 348 348 348 348 270 270 270 236 236 236 31 31 31 31 31 148 148
 148 148 269 389 389 389 389 327 327 195 348 348 348 348 348 348 160 270 270 270
 236 236 236 31 31 31 31 31 148 148 148 148 269 269 269 389 389 209 195 195
 49 49 49 49 160 160 160 160 206 206 206 236 236 31 31 31 31 31 148 148
 148 148 269 269 269 389 209 209 195 195 195 49 49 49 160 160 160 160 206 206
 206 236 236 31 31 31 31 31 148 148 148 148 269 269 269 269 195 195 195 195
 195 49 49 49 160 160 160 160 206 206 177 371 371 31 31 31 31 31 148 148
 148 333 333 344 344 344 195 195 195 195 195 49 49 49 49 160 160 160 177 177
 371 371 371 154 154 154 154 31 333 333 333 333 333 344 344 344 344 195 195 195
 195 195 49 49 400 400 400 335 335 177 371 371 371 154 154 154 154 154 333 333
 333 333 333 344 344 344 344 343 195 195 195 195 195 156 400 400 400 335 335 371
 371 133 133 133 154 154 154 333 333 333 333 333 333 333 344 343 343 343 343 394
 394 394 394 400 400 400 400 335 335 368 133 133 133 133 301 301 301 301 333 333
 333 333 333 333 344 343 343 343 343 394 394 394 394 394 400 400 73 73 73 73
 133 133 133 133 301 301 301 301 129 129 129 333 333 333 317 343 343 343 343 394
 394 394 394 1 1 1 73 73 73 73 316 316 133 301 301 301 301 301 129 129
 129 129 129 317 317 317 317 343 343 394 394 394 152 152 152 152 73 73 73 73
 316 316 316 301 301 301 301 301 129 129 129 129 129 317 317 317 12 12 12 12
 152 152 152 152 152 152 73 73 73 73 390 316 316 121 121 121 121 121 203 203
 129 129 129 317 12 12 12 12 12 12 152 152 152 152 152 152 73 73 390 390
 390 390 316 121 121 121 121 121 203 203 203 283 283 283 12 12 12 12 12 12
 152 152 152 152 152 152 152 390 390 390 390 390 121 121 121 121 121 203 203 203
 203 283 283 283 12 12 12 12 12 12 12 152 152 152 152 152 390 390 390 390
 390 390 358 358 121 121 121 203 203 203 203 283 283 283 284 284 12 12 12 12
 166 152 152 152 176 176 285 285 285 390 285 285 358 358 358 121 121 244 203 203
 203 283 283 283 284 284 284 12 12 166 39 39 39 39 176 176 285 285 285 285
 285 119 119 358 358 244 244 244 244 244 364 364 364 284 284 284 284 12 166 166
 39 39 39 39 176 176 285 285 285 285 285 119 119 119 358 244 244 244 244 244
 364 364 364 364 284 284 284 357 357 357 39 39 39 39 173 173 173 285 285 285
 119 119 119 119 244 244 244 244 244 244 364 364 364 256 256 256 357 357 357 357
 39 39 39 39 173 173 173 173 285 285 199 119 119 20 20 20 20 20 310 310
 310 310 256 256 256 256 256 357 357 357 357 39 39 173 173 173 173 173 199 199
 199 68 68 68 20 20 20 20 310 310 310 310 256 256 256 256 256 357 357 357
 357 39 39 173 173 173 173 173 199 199 199 68 68 68 20 20 20 20 310 310
 310 310 256 256 256 256 319 319 319 319 401 401 401 173 173 173 173 199 199 199
 199 68 68 68 20 20 20 20 310 310 310 256 256 256 256 256 319 319 319 319
 401 401 401 401 318 318 370 199 199 199 309 309 309 224 20 20 20 20 310 310
 310 275 256 256 232 232 319 319 319 319 401 401 401 401 318 318 370 370 199 199
 309 309 309 224 224 224 212 124 124 124 124 275 275 232 232 232 319 319 319 319
 401 401 401 348 348 348 366 366 366 309 309 309 309 224 224 354 212 124 124 124
 124 275 275 275 232 374 319 319 319 319 401 348 348 348 348 348 366 366 366 309
 309 309 309 224 224 354 354 354 138 138 138 275 275 275 275 374 327 327 327 348
 348 348 348 348 348 348 348 270 270 309 309 309 224 224 354 354 354 354 138 138
 138 275 275 275 374 374 327 327 327 327 348 348 348 348 348 348 348 270 270 270
 236 236 236 354 354 354 354 354 138 138 138 275 275 275 389 389 327 327 327 348
 348 348 348 348 348 348 348 270 270 270 236 236 236 31 31 31 31 31 138 138
 138 148 269 389 389 389 389 327 195 195 348 348 348 348 348 348 348 270 270 270
 236 236 236 31 31 31 31 31 148 148 148 148 269 269 269 389 209 209 195 195
 195 49 49 348 348 160 160 270 206 206 206 236 236 31 31 31 31 31 148 148
 148 148 269 269 269 209 209 209 195 195 195 49 49 49 160 160 160 160 206 206
 206 236 236 31 31 31 31 31 148 148 148 148 269 269 269 195 195 195 195 195
 195 49 49 49 49 160 160 160 177 206 177 236 236 31 31 31 31 31 148 333
 333 333 333 344 344 344 195 195 195 195 195 195 49 49 49 22 160 177 177 177
 177 371 371 31 31 154 154 31 333 333 333 333 333 344 344 344 195 195 195 195
 195 195 49 49 400 400 400 335 177 177 371 371 371 154 154 154 154 154 333 333
 333 333 333 344 344 344 343 343 195 195 195 195 195 49 400 400 400 335 368 368
 368 368 133 133 154 154 301 333 333 333 333 333 333 333 50 343 343 343 343 195
 195 394 394 400 400 400 400 400 368 368 368 133 133 133 301 301 301 301 333 333
 333 333 333 50 50 343 343 343 343 343 394 394 394 152 400 400 73 73 73 73
 110 110 110 301 301 301 301 301 60 60 333 333 333 50 50 343 343 343 343 343
 394 394 152 152 152 73 73 73 73 73 110 110 110 301 301 301 301 301 60 60
 60 60 60 317 317 317 343 343 343 343 394 152 152 152 152 152 73 73 73 73
 110 110 110 301 301 301 301 60 60 60 60 60 60 317 317 317 12 12 12 12
 152 152 152 152 152 152 73 73 73 73 110 110 110 121 121 121 121 121 60 60
 60 60 60 12 12 12 12 12 12 12 152 152 152 152 152 152 73 73 73 390
 390 390 121 121 121 121 121 121 203 203 203 203 283 12 12 12 12 12 12 12
 152 152 152 152 152 152 152 390 390 390 390 390 121 121 121 121 121 121 203 203
 203 203 283 283 12 12 12 12 12 12 152 152 152 152 152 152 152 390 390 390
 390 390 121 121 121 121 121 121 203 203 203 283 262 262 284 284 12 12 166 166
 166 152 152 152 152 152 120 120 390 390 285 285 358 358 121 121 121 121 203 203
 203 283 262 262 284 284 284 12 166 166 166 39 39 39 176 120 120 120 285 285
 285 351 351 358 121 121 244 244 244 244 203 262 262 262 284 284 284 284 166 166