# vtk DataFile Version 2.0
Data set from IO Version 6.4.197.9a0dee2
ASCII

DATASET RECTILINEAR_GRID
DIMENSIONS 31 31 31
X_COORDINATES 31 float
-4.116666 4.116666 12.349998 20.583330 28.816664 37.049999 45.283329 53.516663 61.749996 69.983322 78.216660 86.449989 94.683319 102.916656 111.149986 119.383324 127.616653 135.849991 144.083313 152.316650 160.549988 
168.783310 177.016647 185.249985 193.483307 201.716644 209.949982 218.183319 226.416641 234.649979 242.883316 
Y_COORDINATES 31 float
-4.116666 4.116666 12.349998 20.583330 28.816664 37.049999 45.283329 53.516663 61.749996 69.983322 78.216660 86.449989 94.683319 102.916656 111.149986 119.383324 127.616653 135.849991 144.083313 152.316650 160.549988 
168.783310 177.016647 185.249985 193.483307 201.716644 209.949982 218.183319 226.416641 234.649979 242.883316 
Z_COORDINATES 31 float
-4.116666 4.116666 12.349998 20.583330 28.816664 37.049999 45.283329 53.516663 61.749996 69.983322 78.216660 86.449989 94.683319 102.916656 111.149986 119.383324 127.616653 135.849991 144.083313 152.316650 160.549988 
168.783310 177.016647 185.249985 193.483307 201.716644 209.949982 218.183319 226.416641 234.649979 242.883316 
CELL_DATA 27000
SCALARS FeatureIds int 1
LOOKUP_TABLE default
 6 6 341 341 341 341 401 401 287 287 287 47 354 354 354 354 354 354 375 375
 375 375 181 181 181 181 181 181 6 6 6 6 341 341 341 341 23 23 287 47
 47 47 354 354 354 354 354 354 375 375 375 375 99 181 181 181 181 181 6 6
 6 6 143 341 341 23 23 23 23 196 196 47 354 354 354 354 354 375 375 375
 375 375 99 99 52 52 52 6 6 6 143 143 143 324 324 324 23 23 351 153
 153 153 354 354 354 354 354 375 375 375 375 375 99 99 52 52 52 52 6 6
 143 143 143 324 324 324 324 351 351 351 153 153 354 354 354 354 354 387 375 375
 375 375 99 99 52 52 52 52 143 143 143 143 143 324 324 324 351 351 351 351
 351 153 274 274 354 354 387 387 71 71 71 71 99 99 52 52 52 143 143 143
 143 143 143 143 324 324 351 351 351 351 351 351 274 274 150 150 150 71 71 71
 71 71 71 99 52 52 303 303 143 143 143 143 143 143 143 143 351 351 351 351
 351 351 150 150 150 150 150 71 71 71 71 71 71 71 303 303 303 303 303 303
 303 143 143 143 143 204 204 351 75 75 75 75 150 150 150 150 71 71 71 71
 71 71 71 71 303 303 303 303 303 303 334 334 143 143 204 204 204 204 75 75
 75 75 75 235 235 235 71 71 71 71 71 71 71 71 246 303 303 303 303 303
 334 334 334 204 204 204 204 204 75 75 75 75 75 235 235 235 235 71 71 71
 71 71 71 246 246 246 246 188 188 334 188 334 334 204 204 204 204 204 75 189
 189 189 189 235 235 235 235 156 71 71 328 328 328 246 246 246 246 188 188 188
 188 188 188 204 204 204 204 204 189 189 189 189 189 189 235 235 292 292 328 328
 328 328 328 328 246 246 246 188 188 188 188 188 188 147 147 147 294 294 135 135
 189 189 189 17 17 17 17 292 328 328 328 328 328 328 36 36 125 188 188 188
 188 188 147 147 147 147 294 294 135 135 135 189 17 17 17 17 17 17 328 328
 328 328 328 148 148 36 125 188 188 188 188 188 147 147 147 147 294 294 135 135
 135 135 17 17 17 17 17 17 321 328 328 328 148 148 148 36 125 188 188 188
 188 383 383 383 69 69 69 135 135 135 135 135 17 17 17 17 17 17 321 321
 321 226 148 148 148 36 125 185 188 188 383 383 383 383 69 69 69 69 135 135
 135 135 17 17 17 164 164 164 321 321 321 226 226 226 226 408 185 185 185 185
 63 63 63 63 69 69 69 338 338 135 135 319 17 17 164 164 164 164 321 321
 226 226 226 226 408 408 185 185 185 185 63 63 63 63 63 69 338 338 338 338
 338 102 102 164 164 164 164 164 321 226 226 226 226 226 408 408 185 185 185 185
 127 127 127 127 127 338 338 338 338 338 102 102 102 102 164 164 164 164 164 226
 226 226 226 226 408 408 185 185 185 185 127 127 127 127 127 338 338 53 338 338
 102 102 102 102 102 164 164 164 182 226 226 226 226 226 408 408 185 185 185 133
 133 127 127 127 127 338 338 338 338 338 102 102 102 102 102 164 164 164 314 314
 314 314 314 73 73 73 315 315 133 133 133 127 127 127 127 338 338 338 338 338
 102 249 249 249 249 337 337 337 314 314 314 314 314 73 73 73 315 315 315 133
 133 265 265 127 43 43 43 43 338 338 249 249 249 249 249 337 337 337 337 314
 314 314 314 73 73 73 315 315 315 315 315 265 265 265 265 43 43 43 224 224
 249 249 249 249 249 337 337 337 337 314 314 314 314 26 26 315 315 315 315 315
 265 265 265 265 149 43 43 43 224 224 249 249 249 249 249 337 337 337 337 337
 26 26 26 26 26 26 223 223 315 315 193 265 265 265 341 401 401 401 11 224
 224 224 224 224 174 174 337 337 337 337 26 26 26 26 26 26 223 223 223 193
 193 193 341 341 341 401 401 401 11 287 287 287 224 224 174 174 337 337 337 337
 26 26 26 26 181 181 181 223 193 193 193 193 341 341 341 341 401 401 287 287
 287 287 287 287 174 174 119 119 119 119 26 26 26 26 181 181 181 181 193 193
 6 6 341 341 341 401 401 401 287 287 287 287 354 354 354 354 179 179 119 375
 375 26 26 181 181 181 181 6 6 6 6 6 6 341 341 341 401 401 287 196
 196 196 354 354 354 354 179 179 179 375 375 99 99 99 181 181 181 6 6 6
 6 6 143 143 341 23 23 23 153 196 196 196 354 354 354 354 179 179 179 375
 375 99 99 99 52 52 52 6 6 6 143 143 143 143 143 324 23 153 153 153
 153 153 354 354 354 354 179 179 179 375 99 99 99 99 52 52 52 143 143 143
 143 143 143 143 143 324 324 351 153 153 153 153 274 274 354 354 387 387 387 375
 99 99 99 99 99 52 52 143 143 143 143 143 143 143 143 324 351 351 351 153
 153 153 274 274 274 354 387 387 387 71 71 99 99 99 99 52 52 143 143 143
 143 143 143 143 143 143 351 351 351 351 351 153 274 274 274 150 387 387 387 71
 71 71 99 99 99 303 303 303 303 143 143 143 143 143 143 143 143 351 351 351
 351 351 274 274 150 150 150 71 71 71 71 71 71 99 303 303 303 303 303 303
 303 143 143 143 143 204 204 204 75 75 75 369 369 369 369 369 71 71 71 71
 71 71 71 71 303 303 303 303 303 303 303 303 143 204 204 204 204 204 75 75
 75 369 369 369 369 369 369 71 71 71 71 71 71 246 246 303 303 303 303 303
 334 334 204 204 204 204 204 204 75 75 75 369 369 369 369 369 235 156 71 71
 71 71 71 246 246 246 246 303 303 303 188 334 204 204 204 204 204 204 204 189
 189 189 189 369 369 369 156 156 156 71 328 328 328 246 246 246 246 188 188 188
 316 188 188 204 204 204 204 204 204 189 189 189 189 189 369 292 292 292 156 328
 328 328 328 328 246 246 246 188 188 316 316 188 188 147 147 294 294 294 135 135
 189 189 189 189 17 292 292 292 292 328 328 328 328 328 36 36 125 188 316 316
 316 316 147 147 147 294 294 294 135 135 135 189 189 17 17 17 292 292 292 328
 328 328 328 148 148 36 125 316 316 316 316 154 154 147 147 294 294 294 135 135
 135 135 17 17 17 17 292 292 321 321 321 328 148 148 148 36 125 316 316 316
 154 154 383 383 69 69 294 135 135 135 135 135 17 17 17 17 17 321 321 321
 321 226 148 148 129 129 109 109 109 109 154 154 63 63 69 69 69 135 135 135
 135 135 135 17 17 164 164 164 321 321 321 226 226 226 408 408 408 109 109 109
 154 63 63 63 63 69 69 338 135 135 319 319 319 152 164 164 164 164 321 321
 321 226 226 226 408 408 408 408 185 185 63 63 63 63 63 63 53 53 53 319
 319 319 319 319 164 164 164 164 182 182 226 226 226 408 408 408 408 408 185 185
 127 127 127 127 127 127 53 53 53 53 319 319 102 102 164 164 164 164 182 182
 226 226 226 408 408 408 408 408 185 185 127 127 127 127 127 127 53 53 53 53
 102 102 102 102 102 164 164 182 182 182 314 314 314 408 408 408 408 408 315 315
 133 127 127 127 127 127 53 53 53 53 102 102 102 102 102 288 288 288 182 314
 314 314 314 314 73 408 315 315 315 315 315 127 127 127 127 127 43 53 53 338
 102 249 249 18 18 288 288 288 288 314 314 314 314 314 73 315 315 315 315 315
 315 265 265 265 127 43 43 43 224 224 224 224 224 224 224 288 288 288 288 314
 314 314 314 314 26 315 315 315 315 315 315 265 265 265 265 43 43 43 224 224
 224 224 224 224 224 337 337 337 337 314 314 314 26 26 26 26 315 315 315 315
 265 265 265 265 265 43 43 43 224 224 224 224 224 224 224 174 337 337 337 26
 26 26 26 26 26 26 223 223 315 315 193 265 265 265 265 401 401 401 224 224
 224 224 224 224 174 174 174 277 277 26 26 26 26 26 26 26 223 223 223 193
 193 265 265 341 341 401 401 401 287 287 287 224 224 224 174 174 174 174 119 26
 26 26 26 26 26 181 223 223 223 193 6 193 341 341 341 401 401 401 287 287
 287 287 224 224 174 174 119 119 119 119 26 26 26 26 26 181 181 181 6 6
 6 6 6 341 364 364 401 401 287 287 287 287 354 354 354 179 119 119 119 119
 119 26 26 26 26 181 181 6 6 6 6 6 6 364 364 364 364 364 287 196
 196 196 354 354 354 179 179 179 179 119 99 99 26 26 26 181 181 6 6 6
 6 143 143 143 364 364 364 364 153 153 196 196 354 354 354 179 179 179 179 179
 99 99 99 99 99 291 291 6 6 6 143 143 143 143 143 364 364 153 153 153
 153 153 354 354 354 179 179 179 179 179 99 99 99 99 99 291 291 291 143 143
 143 143 143 143 143 143 153 153 153 153 153 153 274 274 354 354 179 179 387 387
 99 99 99 99 99 291 291 291 143 143 143 143 143 143 143 143 143 153 153 153
 153 153 274 274 274 354 387 387 387 307 99 99 99 99 99 291 291 303 143 143
 143 143 143 143 143 143 143 351 351 153 153 153 274 274 274 354 387 387 387 307
 71 99 99 99 99 303 303 303 303 303 303 143 143 143 143 143 289 351 351 168
 168 369 369 369 369 369 387 307 307 307 307 307 71 99 303 303 303 303 303 303
 303 303 143 143 143 204 204 204 168 168 168 369 369 369 369 369 309 307 307 307
 71 71 71 99 303 303 303 303 303 303 303 303 143 204 204 204 204 204 168 168
 168 369 369 369 369 309 309 156 307 307 71 71 71 246 246 303 303 303 303 303
 303 303 204 204 204 204 204 204 204 168 168 369 369 369 369 369 156 156 156 156
 220 220 220 246 246 246 246 303 303 303 188 175 204 204 204 204 204 204 204 189
 189 189 369 369 369 156 156 156 156 156 220 220 220 246 246 246 246 303 188 188
 316 316 204 204 204 204 204 204 204 189 189 189 189 189 369 292 292 156 156 156
 220 328 328 246 246 246 246 246 316 316 316 316 154 204 204 294 294 294 135 135
 189 189 189 189 292 292 292 292 292 292 328 328 328 328 246 246 246 316 316 316
 316 154 154 154 147 294 294 294 135 135 135 189 189 17 262 292 292 292 292 292
 328 328 129 129 129 129 125 316 316 316 154 154 154 154 294 294 294 294 135 135
 135 135 17 262 262 262 292 292 292 321 321 129 129 129 129 129 109 109 316 316
 154 154 154 154 154 294 294 135 135 135 135 135 135 262 262 262 262 292 321 321
 321 86 129 129 129 129 109 109 109 109 154 154 154 154 154 69 69 135 135 135
 135 319 319 262 262 262 164 321 321 321 321 86 129 129 129 408 109 109 109 109
 154 154 154 63 63 63 69 216 135 319 319 319 319 152 262 164 164 182 182 321
 182 182 129 129 408 408 408 109 109 109 154 154 63 63 63 63 63 53 319 319
 319 319 319 152 152 164 182 182 182 182 182 182 226 408 408 408 408 408 109 109
 127 127 127 127 127 127 53 53 53 319 319 319 319 152 152 164 182 182 182 182
 182 182 226 408 408 408 408 408 408 408 127 127 127 127 127 127 53 53 53 53
 319 319 319 152 152 182 182 182 182 182 182 314 314 408 408 408 408 408 315 315
 127 127 127 127 127 127 53 53 53 53 102 18 18 18 18 288 288 288 182 182
 314 314 314 314 408 408 315 315 315 315 315 127 127 127 127 127 43 53 53 224
 224 18 18 18 18 288 288 288 288 314 314 314 314 314 314 315 315 315 315 315
 265 265 265 265 127 43 43 43 224 224 224 224 224 18 18 288 288 288 288 314
 314 314 314 26 26 26 315 315 315 315 265 265 265 265 265 43 43 43 224 224
 224 224 224 224 224 174 277 277 277 314 314 26 26 26 26 26 315 315 315 315
 265 265 265 265 265 43 43 43 224 224 224 224 224 224 174 174 174 277 277 277
 26 26 26 26 26 26 223 223 315 315 265 265 265 265 265 265 401 401 224 224
 224 224 224 224 174 174 174 277 277 277 26 26 26 26 26 26 223 223 223 193
 78 78 265 265 341 401 401 401 287 287 224 224 224 224 174 174 174 174 119 119
 26 26 26 26 26 26 223 223 223 193 6 78 78 341 341 401 401 401 287 287
 287 287 224 224 174 174 119 119 119 119 26 26 26 26 26 26 181 181 6 6
 6 78 78 322 364 364 364 364 287 287 287 287 290 354 119 119 119 119 119 119
 119 26 26 26 26 37 37 37 6 6 6 322 322 322 364 364 364 364 364 196
 196 196 354 354 354 179 179 119 119 119 119 60 60 60 60 60 37 269 6 6
 143 143 143 143 364 364 364 364 153 153 153 153 354 354 95 179 179 179 179 119
 60 60 60 60 60 291 291 269 269 6 143 143 143 143 143 364 364 364 153 153
 153 153 354 354 95 179 179 179 179 179 99 99 99 60 60 291 291 269 269 143
 143 143 143 143 143 364 364 153 153 153 153 153 274 274 95 95 179 179 179 307
 99 99 99 99 60 291 291 291 269 143 143 143 143 143 143 143 143 153 153 153
 153 153 274 274 274 354 387 307 307 307 307 99 99 99 291 291 291 291 303 143
 303 143 143 143 143 143 289 289 351 153 153 168 274 274 274 353 307 307 307 307
 307 307 99 99 291 291 303 303 303 303 303 303 143 143 143 289 289 289 168 168
 168 168 369 369 369 369 307 307 307 307 307 307 99 99 303 303 303 303 303 303
 303 303 143 143 289 289 289 289 168 168 168 168 369 369 369 309 309 307 307 307
 307 307 307 76 306 303 303 303 303 303 303 303 143 204 204 204 289 289 168 168
 168 168 369 369 369 309 309 156 307 307 307 307 220 306 306 306 303 303 303 303
 175 175 175 204 204 204 204 289 289 168 168 369 369 369 369 309 156 156 156 156
 220 220 220 306 306 306 306 306 303 175 175 175 175 204 204 204 204 204 289 168
 189 369 369 369 369 156 156 156 156 156 220 220 220 306 306 306 306 306 175 175
 175 175 175 204 204 204 204 204 320 135 189 189 189 330 330 292 292 156 156 156
 220 220 220 306 306 306 306 306 306 175 154 154 154 154 204 204 294 294 135 135
 189 189 189 330 292 292 292 292 292 292 220 220 220 306 306 306 306 306 316 154
 154 154 154 154 154 294 294 294 135 135 135 189 189 262 262 292 292 292 292 292
 220 220 129 129 129 306 306 306 154 154 154 154 154 154 154 294 294 294 135 135
 135 135 262 262 262 262 292 292 292 400 86 86 129 129 129 129 109 109 154 154
 154 154 154 154 154 154 294 135 135 135 135 135 262 262 262 262 262 292 321 321
 86 86 129 129 129 129 109 109 109 154 154 154 154 154 154 154 216 216 135 135
 319 319 319 262 262 262 262 182 182 182 86 86 129 129 129 129 109 109 109 154
 154 154 154 154 154 63 216 216 216 319 319 319 319 152 152 262 182 182 182 182
 86 86 86 129 408 408 109 109 109 154 154 154 154 63 63 63 216 216 216 319
 319 319 152 152 152 152 182 182 182 182 182 182 86 408 408 408 408 408 109 154
 116 116 116 127 127 127 53 53 216 319 319 319 319 152 152 152 182 182 182 182
 182 182 182 408 408 408 408 408 408 116 116 116 116 127 127 230 53 53 53 319
 319 319 319 18 152 182 182 182 182 182 182 182 182 268 343 343 343 343 207 207
 116 116 116 127 127 127 53 53 53 90 90 18 18 18 18 288 288 288 182 182
 182 314 268 268 268 343 343 315 207 207 207 116 116 127 127 127 43 53 90 90
 90 18 18 18 18 288 288 288 288 182 182 314 268 268 268 268 315 315 207 207
 207 265 265 265 127 43 43 43 224 224 224 18 18 18 18 288 288 288 288 182
 314 314 268 268 268 268 315 315 315 207 265 265 265 265 265 43 43 43 224 224
 224 224 224 18 18 174 277 277 277 182 314 26 26 26 26 26 315 315 315 315
 247 265 265 265 265 43 43 224 224 224 224 224 224 224 174 174 277 277 277 277
 26 26 26 26 26 26 223 223 315 315 247 247 265 265 265 265 401 224 224 224
 224 224 224 224 174 174 174 277 277 119 26 26 26 26 26 26 37 223 223 247
 78 78 78 265 341 401 401 401 224 224 224 224 224 224 174 174 174 119 119 119
 26 26 26 26 26 26 37 37 37 6 78 78 78 78 341 364 401 401 287 287
 287 287 224 224 174 174 119 119 119 119 26 26 26 26 26 26 37 37 37 6
 322 78 322 322 57 364 364 364 364 287 273 273 290 290 119 119 119 119 119 119
 119 26 26 26 26 37 37 37 37 6 322 322 322 322 364 364 364 364 364 273
 273 273 273 290 290 119 119 119 119 119 119 60 60 60 60 60 37 269 269 269
 322 322 322 322 364 364 364 364 364 273 273 273 273 95 95 95 95 179 119 119
 60 60 60 60 60 291 291 269 269 269 143 143 143 143 143 364 364 364 153 153
 273 273 273 95 95 95 95 179 179 60 60 60 60 60 60 291 291 269 269 269
 143 143 143 143 143 364 364 364 153 153 176 176 176 95 95 95 95 179 307 307
 60 60 60 60 60 291 291 269 269 269 143 143 143 143 143 248 248 153 153 153
 176 176 176 274 353 353 353 307 307 307 307 99 60 60 60 291 291 291 269 269
 303 391 143 143 143 289 289 289 362 362 176 176 176 176 353 353 307 307 307 307
 307 307 76 60 60 291 291 303 303 303 303 303 143 143 289 289 289 289 289 168
 168 168 369 369 369 369 307 307 307 307 307 307 76 76 76 303 303 303 303 303
 303 303 143 289 289 289 289 289 289 168 168 168 369 369 369 369 307 307 307 307
 307 307 76 76 306 306 303 303 303 303 175 175 175 289 289 289 289 289 289 168
 168 168 369 369 369 309 309 307 307 307 307 307 220 306 306 306 306 303 303 303
 175 175 175 175 183 289 289 289 289 168 168 168 330 369 369 369 156 156 156 307
 220 220 220 306 306 306 306 306 175 175 175 175 175 175 183 183 183 289 320 320
 320 330 330 330 330 330 156 156 156 220 220 220 220 220 306 306 306 306 175 175
 175 175 175 183 183 183 183 289 320 320 320 330 330 330 330 292 292 239 239 220
 220 220 220 220 306 306 306 306 175 175 154 154 154 154 183 183 183 294 320 135
 320 189 330 330 292 292 292 239 239 220 220 220 220 306 306 306 306 306 154 154
 154 154 154 154 154 294 294 294 198 198 198 198 178 262 262 292 292 239 239 400
 400 220 220 306 306 306 306 306 154 154 154 154 154 154 154 154 294 294 198 198
 198 198 262 262 262 262 292 239 400 400 400 86 129 129 129 129 306 154 154 154
 154 154 154 154 154 154 216 198 198 198 198 198 262 262 262 262 262 182 400 400
 86 86 86 129 129 129 109 109 154 154 154 154 154 154 154 154 216 216 216 216
 319 319 398 262 262 262 182 182 182 182 86 86 86 129 129 296 109 109 109 154
 154 154 154 154 154 154 216 216 216 216 319 319 319 152 152 262 182 182 182 182
 86 86 86 129 129 296 296 296 296 154 154 154 154 154 154 230 216 216 216 216
 398 398 398 152 152 152 182 182 182 182 182 182 182 408 408 408 296 296 296 296
 116 116 116 116 230 230 230 216 216 216 398 398 398 152 152 182 182 182 182 182
 182 182 182 343 343 343 343 343 296 116 116 116 116 116 230 230 230 230 216 90
 90 90 18 18 18 182 182 182 182 182 182 182 268 268 343 343 343 343 207 207
 116 116 116 116 230 230 230 230 90 90 90 18 18 18 18 18 288 288 182 182
 182 182 268 268 268 343 343 207 207 207 207 116 116 116 230 230 230 230 90 90
 90 18 18 18 18 288 288 288 288 182 182 268 268 268 268 268 343 207 207 207
 207 207 116 116 230 66 66 66 224 90 90 18 18 18 18 18 288 288 288 182
 182 268 268 268 268 268 343 207 207 207 247 247 247 247 247 66 66 224 224 224
 224 90 18 18 18 174 277 277 277 182 26 26 26 26 268 268 315 315 207 207
 247 247 247 247 247 66 66 224 224 224 224 224 224 224 174 174 277 277 277 277
 26 26 26 26 26 26 37 37 247 247 247 247 247 247 247 57 66 224 224 224
 224 224 224 224 174 174 174 277 119 119 26 26 26 26 26 26 37 37 37 247
 78 78 78 247 57 57 57 224 224 224 224 224 224 224 174 174 119 119 119 119
 26 26 26 26 26 37 37 37 37 247 78 78 78 78 57 57 57 57 287 287
 287 224 224 119 119 119 119 119 119 119 119 26 26 26 26 37 37 37 37 37
 322 322 322 322 57 57 57 364 50 273 29 29 290 290 290 119 119 119 119 119
 119 60 60 60 37 37 37 37 37 322 322 322 322 322 322 364 364 364 273 273
 273 273 290 290 290 95 119 119 119 119 119 60 60 60 60 60 37 37 269 269
 322 322 322 322 322 364 364 364 273 273 273 273 273 290 95 95 95 119 119 119
 60 60 60 60 60 291 269 269 269 269 322 322 322 322 322 364 364 364 273 273
 273 273 273 95 95 95 95 95 119 60 60 60 60 60 60 291 291 269 269 269
 391 391 391 391 248 248 248 248 153 153 176 176 176 95 95 95 95 95 307 307
 60 60 60 60 60 291 291 269 269 269 391 391 391 391 248 248 248 289 362 362
 176 176 176 95 353 353 353 307 307 307 307 76 60 60 60 291 291 291 269 269
 391 391 391 391 248 289 289 289 362 362 362 176 176 176 353 353 353 307 307 307
 307 76 76 76 60 291 291 254 303 303 407 391 391 391 289 289 289 289 362 362
 362 168 369 369 369 353 307 307 307 307 307 76 76 76 76 303 303 303 303 303
 407 407 407 289 289 289 289 289 289 168 168 168 369 369 369 369 307 307 307 307
 307 76 76 76 306 306 306 303 407 407 175 175 175 175 289 289 289 289 289 168
 168 168 330 369 369 309 307 307 307 307 307 220 220 306 306 306 306 306 407 407
 175 175 175 175 183 183 289 289 289 320 168 330 330 330 330 330 156 307 307 307
 220 220 220 306 306 306 306 306 407 175 175 175 175 175 183 183 183 289 320 320
 320 330 330 330 330 330 239 239 239 220 220 220 220 220 306 306 306 306 175 175
 175 175 175 175 183 183 183 289 320 320 320 330 330 330 330 330 239 239 239 220
 220 220 220 220 306 306 306 306 175 175 154 154 154 154 183 183 183 289 320 320
 320 330 330 330 330 239 239 239 239 239 220 220 220 306 306 306 306 306 154 154
 154 154 154 154 154 154 294 198 198 198 198 178 178 178 330 239 239 239 239 400
 400 220 220 306 306 306 306 306 154 154 154 154 154 154 154 154 294 198 198 198
 198 198 178 178 262 262 239 239 400 400 400 86 86 86 129 306 306 154 154 154
 154 154 154 154 154 154 216 198 198 198 198 198 398 262 262 115 115 115 400 400
 86 86 86 86 129 129 109 109 154 154 154 154 154 154 154 154 216 216 216 216
 398 398 398 398 262 115 115 115 182 86 86 86 86 86 129 296 296 296 296 154
 154 154 154 154 154 154 216 216 216 216 398 398 398 398 115 115 115 182 182 182
 86 86 86 86 296 296 296 296 296 154 154 116 154 154 154 230 216 216 216 216
 398 398 398 398 152 115 182 182 182 182 182 182 182 343 343 296 296 296 296 296
 116 116 116 116 230 230 230 216 216 398 398 398 398 398 398 182 182 182 182 182
 182 182 182 343 343 343 343 296 296 116 116 116 116 116 230 230 230 230 216 90
 90 90 90 90 90 182 182 182 182 182 182 182 268 268 343 81 343 343 207 116
 116 116 116 116 230 230 230 230 90 90 90 90 90 18 18 27 27 182 182 182
 182 182 268 268 343 343 343 207 207 207 207 116 116 116 230 230 230 90 90 90
 90 90 18 18 18 27 27 27 182 182 182 268 268 268 268 268 343 207 207 207
 207 207 116 116 66 66 66 66 90 90 90 90 18 18 18 27 27 27 182 182
 182 268 268 268 268 268 343 207 207 207 247 247 247 247 66 66 66 66 66 90
 90 90 90 18 18 27 277 277 182 186 182 268 268 268 268 268 8 8 207 207
 247 247 247 247 247 66 66 66 66 224 90 90 90 224 174 119 119 119 119 186
 186 26 26 26 26 26 37 37 207 247 247 247 247 247 247 66 66 66 66 224
 224 224 224 224 119 119 119 119 119 119 186 26 26 26 26 37 37 37 37 247
 247 247 247 247 57 57 57 66 50 224 224 29 29 29 119 119 119 119 119 119
 119 26 26 26 26 37 37 37 37 247 78 78 78 322 57 57 57 57 50 50
 50 29 29 29 119 119 119 119 119 119 119 26 26 26 37 37 37 37 37 37
 322 322 322 322 322 65 65 65 50 50 50 29 290 290 290 119 119 119 119 119
 187 187 187 60 37 37 37 37 37 191 322 322 322 322 322 364 364 364 50 273
 273 273 290 290 290 290 119 119 119 119 187 187 60 60 60 60 37 37 269 269
 322 322 322 322 322 364 364 364 273 273 273 273 290 290 290 95 95 119 119 119
 187 60 60 60 60 60 269 269 269 269 322 322 322 322 322 248 248 253 273 273
 273 273 273 290 95 95 95 95 119 60 60 60 60 60 60 291 269 269 269 269
 391 391 391 391 248 248 248 248 248 176 176 176 176 212 95 95 95 54 307 307
 60 60 60 60 60 291 291 254 269 269 391 391 391 391 248 248 248 248 362 362
 176 176 176 212 353 353 353 54 307 307 307 76 76 60 60 291 254 254 254 391
 391 391 391 391 248 248 248 289 362 362 362 176 176 212 353 353 353 307 307 307
 307 76 76 76 76 254 254 254 254 391 407 391 391 391 289 289 289 289 362 362
 362 168 176 212 353 353 307 307 307 307 307 76 76 76 76 254 254 254 407 407
 407 407 391 289 289 289 289 289 289 362 168 168 266 369 263 263 263 307 307 307
 307 76 76 76 306 306 306 407 407 407 407 407 175 175 289 289 289 289 289 289
 168 266 266 266 263 263 263 307 307 307 307 76 76 306 306 305 306 407 407 407
 175 175 175 175 183 289 289 289 289 320 266 266 330 330 330 263 263 307 307 307
 220 220 220 306 306 306 306 407 407 407 175 175 175 175 183 183 183 289 320 320
 320 330 330 330 330 330 263 239 239 220 220 220 220 306 306 306 306 306 407 175
 175 175 175 183 183 183 183 289 320 320 320 330 330 330 330 330 239 239 239 220
 220 220 220 306 306 306 306 306 357 175 357 154 154 154 183 183 183 289 320 320
 320 178 178 178 330 330 239 239 239 239 220 220 220 306 306 306 306 306 357 357
 154 154 154 154 154 154 183 198 198 198 198 178 178 178 330 239 239 239 239 122
 122 220 220 306 306 306 306 306 357 357 154 154 154 154 154 154 154 198 198 198
 198 350 178 178 178 115 115 115 122 122 122 86 86 86 306 306 306 154 154 154
 154 154 154 154 154 154 216 198 198 198 350 350 350 350 115 115 115 115 122 122
 86 86 86 86 129 296 296 154 154 154 154 154 154 154 154 154 216 216 216 350
 350 350 350 350 115 115 115 115 115 86 86 86 86 86 296 296 296 296 296 154
 154 154 154 154 154 154 216 216 216 216 398 398 398 398 115 115 115 115 182 182
 86 86 86 86 296 296 296 296 296 154 154 154 154 154 154 230 216 216 216 216
 398 398 398 398 115 115 115 182 182 182 182 182 86 343 343 296 296 296 296 296
 116 116 116 116 230 230 230 216 216 398 398 398 398 398 115 115 182 182 182 182
 182 182 182 343 343 343 343 296 296 116 116 116 116 116 230 230 230 230 216 90
 90 90 90 90 90 182 182 182 182 182 182 182 268 268 343 343 343 343 207 116
 116 116 116 116 230 230 230 230 90 90 90 90 90 90 18 27 27 182 182 182
 182 182 268 268 343 343 343 343 207 207 207 116 116 116 230 230 230 90 90 90
 90 90 90 90 18 27 27 27 182 182 182 268 268 268 268 268 343 207 207 207
 207 207 116 403 403 66 66 66 4 90 90 90 90 90 18 27 27 27 121 182
 182 268 268 268 268 268 8 8 207 207 247 247 247 403 403 66 66 66 66 90
 90 90 90 90 90 27 27 27 186 186 186 268 268 268 268 268 8 8 8 207
 247 247 247 247 403 66 66 66 66 4 90 90 90 90 90 119 119 119 186 186
 186 186 238 238 26 8 8 8 8 247 247 247 247 247 403 66 66 66 66 4
 224 29 29 29 119 119 119 119 119 186 186 186 238 238 37 37 37 37 37 247
 247 247 247 247 65 65 65 66 50 50 50 29 29 29 119 119 119 119 119 119
 186 238 238 238 37 37 37 37 37 191 191 322 322 322 65 65 65 50 50 50
 50 29 29 29 290 119 119 119 119 119 119 238 238 238 37 37 37 37 37 191
 191 322 322 322 65 65 65 65 50 50 50 29 290 290 290 290 119 119 119 187
 187 187 187 187 187 37 37 37 191 191 322 322 322 322 322 65 65 65 50 50
 50 290 290 290 290 290 119 119 119 187 187 187 187 187 60 37 37 37 37 191
 322 322 322 322 322 322 248 253 253 273 273 290 290 290 290 290 95 119 119 187
 187 187 187 60 60 60 269 269 269 269 391 391 391 322 322 248 248 253 253 42
 273 212 290 290 290 95 95 95 187 187 187 187 60 60 60 60 269 269 269 269
 391 391 391 391 248 248 248 248 108 108 176 212 212 212 212 212 54 54 54 187
 187 187 60 60 60 291 254 254 254 254 391 391 391 391 248 248 248 248 108 108
 108 212 212 212 212 212 54 54 54 307 307 76 76 60 60 254 254 254 254 254
 391 391 391 391 248 248 248 248 362 362 362 212 212 212 212 212 54 54 307 307
 307 76 76 76 76 254 254 254 254 391 407 391 391 391 248 248 289 289 362 362
 362 212 212 212 212 212 307 307 307 307 307 76 76 76 76 254 254 254 407 407
 407 407 407 166 166 166 289 289 289 362 266 266 266 266 263 263 263 307 307 307
 307 76 76 76 305 305 305 407 407 407 407 407 407 166 166 166 289 289 289 266
 266 266 266 266 263 263 263 307 307 307 307 76 76 76 305 305 305 407 407 407
 407 407 407 166 166 166 289 289 289 266 266 266 266 266 263 263 263 263 307 307
 220 220 220 306 306 305 306 407 407 407 175 175 175 166 166 166 289 289 289 276
 266 266 266 330 330 330 263 263 239 220 220 220 220 306 306 306 306 306 407 407
 357 175 175 183 183 183 183 289 320 276 320 266 330 330 330 330 239 239 239 122
 220 220 220 306 306 306 306 306 357 357 357 154 154 154 183 183 183 289 320 276
 320 178 178 178 330 330 239 239 239 122 122 220 220 306 306 306 306 306 357 357
 154 154 154 154 154 171 171 198 198 198 350 178 178 178 178 115 239 239 122 122
 122 122 86 327 327 327 327 327 357 357 154 154 154 154 154 171 171 218 198 350
 350 350 178 178 115 115 115 115 122 122 122 122 86 86 327 327 327 327 154 154
 154 154 154 154 154 154 216 198 198 350 350 350 350 350 115 115 115 115 122 122
 122 86 86 86 327 327 327 327 154 154 154 154 154 154 154 154 216 216 350 350
 350 350 350 350 115 115 115 115 115 115 86 86 86 86 327 296 296 296 296 154
 154 154 154 154 154 154 216 216 216 350 350 350 350 350 115 115 115 115 115 115
 86 86 86 86 296 296 296 296 296 154 154 154 154 154 154 230 216 216 216 350
 350 398 350 350 115 115 115 115 115 182 182 182 59 59 343 296 296 296 296 296
 116 116 116 405 405 230 230 216 216 398 398 398 398 255 115 115 115 115 182 182
 182 59 59 59 343 343 296 296 296 296 116 116 116 405 405 230 230 230 216 90
 90 90 90 255 121 121 121 121 182 182 182 59 59 59 343 343 343 343 296 116
 116 116 116 116 405 230 230 132 90 90 90 90 90 90 121 121 121 121 121 182
 182 59 59 59 268 343 343 343 207 207 207 116 116 403 403 230 66 4 4 4
 90 90 90 90 90 27 27 121 121 121 182 59 268 268 268 268 343 207 207 207
 207 207 403 403 403 66 66 4 4 4 90 90 90 90 90 121 121 121 121 121
 182 268 268 268 268 268 8 8 8 207 247 247 403 403 403 66 66 66 4 4
 4 90 90 90 381 121 121 121 186 186 186 186 268 268 268 8 8 8 8 207
 247 247 247 403 403 66 66 66 4 4 4 4 90 381 381 119 119 119 186 186
 186 186 238 238 238 8 8 8 8 247 247 247 247 403 403 66 66 66 66 4
 4 4 29 29 119 119 119 119 186 186 186 238 238 238 238 37 37 37 37 247
 191 247 247 247 65 65 65 50 50 50 50 29 29 29 119 119 119 119 119 186
 186 238 238 238 238 37 37 37 191 191 191 322 322 322 65 65 65 50 50 50
 50 29 29 29 290 119 119 119 119 119 187 238 238 238 37 37 37 37 191 191
 191 322 322 322 65 65 65 65 50 50 50 290 290 290 290 240 240 119 187 187
 187 187 187 187 187 195 195 195 195 191 322 322 322 322 322 65 65 253 50 50
 50 290 290 290 290 290 119 119 187 187 187 187 187 187 187 195 195 195 195 195
 105 105 322 322 322 253 253 253 253 42 42 290 290 290 290 290 95 187 187 187
 187 187 187 187 187 195 195 195 195 195 391 391 391 322 253 253 253 253 253 42
 42 212 212 212 212 212 212 187 187 187 187 187 187 187 60 60 254 254 254 254
 391 391 391 391 248 248 253 253 108 108 108 212 212 212 212 212 212 54 187 187
 187 187 187 187 60 254 254 254 254 254 391 391 391 391 248 248 248 248 108 108
 108 212 212 212 212 212 212 54 54 307 307 76 76 60 60 254 254 254 254 254
 391 391 391 391 248 248 248 248 108 108 108 212 212 212 212 212 212 54 307 307
 307 76 76 76 254 254 254 254 254 254 407 391 391 166 166 166 166 166 108 108
 108 212 212 212 212 212 212 307 307 307 307 76 76 76 35 254 254 254 407 407
 407 407 120 166 166 166 166 166 289 266 266 266 266 212 263 263 263 307 307 307
 307 76 76 76 35 305 305 407 407 407 407 407 120 166 166 166 166 166 289 266