# vtk DataFile Version 2.0
Data set from IO Version 6.4.197.9a0dee2
ASCII

DATASET RECTILINEAR_GRID
DIMENSIONS 31 31 31
X_COORDINATES 31 float
-5.500000 5.500000 16.500000 27.500000 38.500000 49.500000 60.500000 71.500000 82.500000 93.500000 104.500000 115.500000 126.500000 137.500000 148.500000 159.500000 170.500000 181.500000 192.500000 203.500000 214.500000 
225.500000 236.500000 247.500000 258.500000 269.500000 280.500000 291.500000 302.500000 313.500000 324.500000 
Y_COORDINATES 31 float
-5.500000 5.500000 16.500000 27.500000 38.500000 49.500000 60.500000 71.500000 82.500000 93.500000 104.500000 115.500000 126.500000 137.500000 148.500000 159.500000 170.500000 181.500000 192.500000 203.500000 214.500000 
225.500000 236.500000 247.500000 258.500000 269.500000 280.500000 291.500000 302.500000 313.500000 324.500000 
Z_COORDINATES 31 float
-5.500000 5.500000 16.500000 27.500000 38.500000 49.500000 60.500000 71.500000 82.500000 93.500000 104.500000 115.500000 126.500000 137.500000 148.500000 159.500000 170.500000 181.500000 192.500000 203.500000 214.500000 
225.500000 236.500000 247.500000 258.500000 269.500000 280.500000 291.500000 302.500000 313.500000 324.500000 
CELL_DATA 27000
SCALARS FeatureIds int 1
LOOKUP_TABLE default
 279 279 279 217 217 217 94 94 94 94 126 126 126 126 221 221 377 377 377 377
 382 382 382 36 36 36 36 36 36 279 279 279 279 217 217 38 94 94 94 94
 126 126 126 126 126 126 377 377 377 376 382 382 382 36 36 36 36 36 36 279
 373 92 92 92 92 38 94 94 94 312 312 312 126 126 126 126 126 376 376 376
 376 382 382 36 36 36 36 36 373 373 373 92 92 92 92 92 92 94 312 312
 312 312 126 126 126 403 117 376 376 376 376 376 382 213 36 36 36 373 373 373
 373 92 92 92 92 92 92 92 4 4 312 312 126 126 117 117 117 376 376 376
 376 376 376 213 36 36 36 373 373 373 373 92 92 92 92 92 92 92 4 4
 4 53 53 53 53 53 340 110 110 110 110 110 110 296 296 296 373 373 373 373
 373 92 92 92 92 92 92 92 4 4 4 53 53 53 53 53 340 110 110 110
 110 110 110 110 296 296 373 373 373 373 373 92 92 92 92 92 92 409 409 409
 409 53 53 53 53 53 340 110 110 110 110 110 110 110 308 308 373 373 373 373
 392 183 183 92 92 92 92 409 409 409 409 409 53 53 53 1 1 110 110 110
 110 110 110 308 308 308 308 392 392 392 392 183 183 183 92 92 357 357 357 357
 409 409 409 409 1 1 1 1 110 110 110 110 25 26 26 26 58 392 392 392
 392 183 183 183 299 299 299 357 357 357 409 409 409 409 1 1 1 1 1 142
 25 25 25 26 26 26 58 58 392 392 183 183 299 299 299 299 299 131 131 131
 131 409 409 409 1 1 1 1 1 142 25 25 25 26 26 26 26 58 392 392
 261 299 299 299 299 299 299 131 131 131 131 131 409 409 1 1 1 1 1 142
 25 25 25 26 26 26 26 58 261 261 261 299 299 299 299 299 299 131 131 131
 131 131 258 258 258 258 258 258 258 142 25 294 294 26 26 26 26 58 261 261
 261 261 299 299 299 299 299 131 131 131 131 131 258 258 258 258 258 258 219 219
 219 294 294 294 26 26 26 261 261 261 261 261 299 299 299 299 299 197 131 131
 131 131 258 258 258 258 258 258 219 219 219 294 294 294 294 399 86 261 261 261
 261 261 299 299 299 299 197 197 197 197 33 33 33 258 258 258 258 258 219 219
 219 294 294 294 399 399 86 86 313 261 261 261 299 101 101 101 197 197 197 197
 33 33 33 258 258 258 258 258 219 219 219 294 294 371 371 399 371 86 313 313
 261 261 101 101 101 101 101 197 197 197 33 33 33 32 258 258 258 258 378 378
 378 294 371 371 371 371 371 371 371 313 178 178 101 101 101 101 101 101 2 2
 2 2 32 32 32 258 258 378 378 378 378 378 371 371 371 371 371 371 371 313
 178 178 252 101 101 101 101 101 2 2 2 2 32 32 32 134 134 134 378 378
 378 378 371 371 371 371 371 371 371 371 178 252 252 252 405 405 405 2 2 2
 2 2 124 124 134 134 134 134 134 134 134 134 371 371 371 371 371 371 34 34
 178 178 252 252 405 405 405 2 2 2 2 2 124 124 134 134 134 134 134 134
 134 134 326 326 326 326 326 326 34 34 34 178 178 178 405 405 405 2 2 2
 325 325 325 124 134 134 134 134 134 134 134 9 9 9 326 326 326 326 34 34
 34 178 178 178 390 390 390 390 325 325 325 325 325 325 134 134 134 134 134 134
 134 9 9 9 326 326 326 326 34 34 146 146 146 390 390 390 390 390 325 325
 325 325 325 325 325 134 134 134 134 134 134 9 9 9 9 9 326 263 263 34
 146 146 146 146 390 390 390 94 234 234 325 325 325 325 195 195 134 134 107 107
 107 9 9 9 9 9 263 263 263 263 146 146 146 146 390 390 94 94 234 234
 234 325 325 221 195 195 195 377 107 107 107 107 172 172 172 263 263 263 263 263
 279 279 279 217 217 217 94 94 94 234 234 325 221 221 221 221 377 377 377 107
 107 107 172 172 172 263 263 263 263 263 279 279 279 217 217 217 94 94 94 94
 234 126 221 221 221 221 377 377 377 377 107 107 172 172 36 36 263 263 263 279
 279 279 279 279 217 148 94 94 94 94 287 287 126 221 221 221 377 377 377 377
 382 352 382 36 36 36 36 36 279 279 279 279 279 279 148 148 148 94 94 94
 126 126 126 126 126 221 377 377 377 376 376 352 352 36 36 36 36 36 36 279
 373 373 92 92 148 148 148 94 94 312 312 126 126 126 126 117 117 376 376 376
 376 352 352 36 36 36 36 373 373 373 373 373 92 92 92 92 148 94 94 312
 312 312 126 126 117 117 117 376 376 376 376 376 376 213 296 296 296 373 373 373
 373 373 92 92 92 92 92 92 4 4 312 312 126 126 117 117 117 376 376 376
 376 376 376 296 296 296 296 373 373 373 373 373 92 92 92 92 92 231 4 4
 4 53 53 53 53 340 340 340 110 110 110 110 110 296 296 296 296 373 373 373
 373 373 92 92 92 92 92 231 4 4 4 53 53 53 53 340 340 340 110 110
 110 110 110 110 296 296 296 373 373 373 373 373 92 92 92 92 231 231 409 409
 409 53 53 53 53 53 340 340 110 110 110 110 110 110 296 296 296 373 373 373
 392 392 183 92 92 92 231 357 357 357 409 409 53 53 53 53 340 110 110 110
 110 110 110 327 308 308 392 392 392 392 392 392 183 183 299 299 357 357 357 357
 357 409 409 53 53 1 1 208 110 110 110 25 25 26 26 58 58 392 392 392
 392 392 299 299 299 299 299 357 357 357 357 409 409 409 1 1 1 1 208 142
 25 25 25 26 26 58 58 58 392 392 392 299 299 299 299 299 299 131 131 131
 131 409 409 409 1 1 1 1 142 142 142 25 25 25 26 58 58 58 392 392
 261 299 299 299 299 299 299 131 131 131 131 131 409 258 258 258 258 1 142 142
 25 25 25 25 26 26 58 58 261 261 261 299 299 299 299 299 299 131 131 131
 131 131 258 258 258 258 258 258 258 171 25 25 25 25 26 188 188 58 261 261
 261 261 299 299 299 299 299 131 131 131 131 131 258 258 258 258 258 258 258 171
 171 294 294 181 188 188 86 261 261 261 261 261 299 299 299 299 299 131 131 131
 131 33 258 258 258 258 258 258 258 171 219 294 181 181 181 86 86 86 261 261
 261 261 299 299 299 299 299 197 197 33 33 33 33 258 258 258 258 258 258 219
 219 294 294 181 399 399 86 86 261 261 261 261 163 163 101 101 101 197 197 33
 33 33 33 258 258 258 258 258 258 378 378 294 294 371 399 399 399 86 86 313
 261 163 163 163 101 101 101 101 197 33 33 33 33 258 258 258 258 258 378 378
 378 378 371 371 371 371 371 86 86 313 163 163 163 101 101 101 101 101 2 2
 2 33 33 32 32 258 258 378 378 378 378 123 123 123 371 371 371 371 371 371
 252 252 252 101 101 101 101 2 2 2 2 2 124 124 124 134 134 134 378 378
 378 123 123 371 371 371 371 371 371 34 252 252 252 252 101 101 101 2 2 2
 2 2 124 124 124 134 134 134 134 134 134 134 123 371 371 371 371 371 34 34
 34 252 252 252 405 405 405 2 2 2 2 124 124 124 124 134 134 134 134 134
 134 134 9 326 326 326 326 34 34 34 34 252 252 252 252 390 390 2 2 2
 325 325 124 124 124 134 134 134 134 134 134 9 9 9 9 326 326 34 34 34
 34 34 252 252 390 390 390 390 325 325 325 325 325 124 124 134 134 134 134 134
 134 9 9 9 9 9 326 34 34 34 146 146 146 390 390 390 390 390 325 325
 325 325 325 325 124 134 134 134 134 134 134 9 9 9 9 9 263 263 263 146
 146 146 146 390 390 390 390 94 94 325 325 325 325 325 195 195 195 134 134 107
 107 9 9 9 9 9 263 263 263 146 146 146 146 146 390 94 94 94 94 325
 325 325 325 221 195 195 195 377 377 107 107 35 9 9 9 263 263 263 263 263
 279 279 279 279 217 94 94 94 94 94 287 287 221 221 221 221 377 377 377 377
 107 35 172 172 172 263 263 263 263 263 279 279 279 279 217 94 94 94 94 94
 287 287 221 221 221 221 377 377 377 377 377 35 172 172 36 263 263 263 263 279
 279 279 279 279 217 148 94 94 94 94 287 287 287 221 221 221 377 377 377 377
 352 352 352 352 36 36 36 36 279 279 279 279 279 279 148 148 94 94 94 94
 287 287 287 126 221 221 377 377 377 376 352 352 352 352 36 36 36 36 373 279
 373 373 279 92 148 148 148 94 94 94 287 126 126 126 117 117 117 376 376 376
 352 352 352 352 36 36 36 373 373 373 373 373 373 92 92 92 82 94 82 312
 312 312 67 67 117 403 117 376 376 376 376 352 352 296 296 296 296 373 373 373
 373 373 373 92 92 92 231 231 231 231 312 67 67 67 67 117 117 376 376 376
 376 376 376 296 296 296 296 373 373 373 373 373 373 92 92 92 231 231 231 231
 53 53 53 53 53 340 340 340 110 110 110 110 110 296 296 296 296 373 373 373
 373 373 373 92 92 92 231 231 231 231 53 53 53 53 53 340 340 340 110 110
 110 110 327 327 296 296 296 373 373 373 373 373 373 92 92 231 231 231 231 231
 409 53 53 53 53 340 340 340 110 110 110 110 327 327 327 296 296 373 373 373
 392 392 392 92 92 231 231 231 357 357 409 409 53 53 53 208 208 208 110 110
 110 110 327 327 327 296 296 392 392 392 392 392 183 299 299 227 227 227 357 357
 409 409 409 53 53 208 208 208 208 110 110 110 327 327 58 58 58 392 392 392
 392 392 299 299 299 299 227 227 206 206 206 409 409 409 1 208 208 208 208 208
 25 25 25 25 58 58 58 58 392 392 392 299 299 299 299 299 299 227 206 206
 206 206 409 409 1 208 208 208 208 142 25 25 25 25 58 58 58 58 392 392
 261 299 299 299 299 299 299 131 131 131 131 131 131 258 258 258 258 258 171 171
 25 25 25 25 188 188 58 58 261 261 261 299 299 299 299 299 299 131 131 131
 131 131 258 258 258 258 258 258 171 171 171 25 25 188 188 188 188 188 261 261
 261 261 299 299 299 299 299 131 131 131 131 131 258 258 258 258 258 258 171 171
 171 171 181 181 188 188 188 188 261 261 261 261 299 299 299 299 299 131 131 131
 131 131 258 258 258 258 258 258 258 171 171 181 181 181 181 86 86 86 261 261
 261 261 299 299 299 299 85 85 85 33 33 33 33 258 258 258 258 258 258 171
 364 181 181 181 181 399 86 86 261 261 261 163 163 163 163 101 85 85 85 33
 33 33 33 258 258 258 258 258 258 378 378 123 181 123 399 399 86 86 86 261
 163 163 163 163 163 101 101 85 85 33 33 33 33 258 258 258 258 54 378 378
 378 123 123 123 123 371 371 86 86 86 163 163 163 163 101 101 101 101 2 2
 2 33 33 124 258 258 54 54 378 378 378 123 123 123 123 123 371 371 371 371
 252 252 163 163 101 101 101 2 2 2 2 2 124 124 124 134 134 54 134 378
 378 123 123 123 123 371 371 371 371 34 34 252 252 252 101 101 101 2 2 2
 2 124 124 124 124 134 134 134 134 134 134 123 123 123 123 371 371 371 34 34
 34 252 252 252 101 101 101 2 2 2 2 124 124 124 124 134 134 134 134 134
 134 134 9 123 368 368 368 34 34 34 34 252 252 252 252 390 390 2 2 2
 325 124 124 124 124 134 134 134 134 134 134 9 9 9 368 368 368 34 34 34
 34 34 252 252 390 390 390 390 325 325 325 325 124 124 124 134 134 134 134 134
 134 9 9 9 9 368 368 34 34 34 146 146 146 390 390 390 390 390 325 325
 325 325 325 124 124 134 134 134 134 134 134 9 9 9 9 9 263 263 263 146
 146 146 146 146 390 390 390 94 325 325 325 325 325 325 124 195 134 134 134 134
 35 35 9 9 9 9 263 263 263 146 146 146 146 146 390 390 94 94 94 325
 325 325 325 221 221 195 195 377 377 377 35 35 35 9 9 263 263 263 263 146
 279 279 279 279 217 94 94 94 94 94 287 287 287 221 221 221 377 377 377 377
 35 35 35 9 9 263 263 263 263 263 279 279 279 279 217 94 94 94 94 287
 287 287 287 221 221 221 377 377 377 377 35 35 35 9 36 263 263 263 263 279
 279 279 279 279 269 269 269 269 94 287 287 287 287 287 221 221 377 377 377 352
 352 352 352 352 68 68 68 68 279 279 279 279 279 279 269 269 269 94 94 287
 287 287 287 287 221 221 377 377 377 352 352 352 352 352 68 68 68 68 373 373
 373 373 279 21 82 82 82 82 82 82 287 287 287 67 67 117 377 376 376 376
 352 352 352 352 68 68 68 373 373 373 373 373 373 21 92 82 82 82 82 82
 67 67 67 67 67 403 117 376 376 376 376 352 352 352 296 296 296 373 373 373
 373 373 373 92 92 82 82 82 82 231 67 67 67 67 67 67 55 55 376 376
 376 376 352 296 296 296 296 373 373 373 373 373 373 92 92 231 231 231 231 231
 231 67 67 67 67 55 55 55 55 110 110 110 296 296 296 296 296 373 373 373
 373 373 246 92 92 231 231 231 231 231 231 53 53 53 53 340 340 340 110 110
 110 110 327 327 296 296 296 373 373 373 373 246 246 246 70 231 231 231 231 231
 231 53 53 53 53 340 340 340 110 110 110 229 327 327 327 296 296 373 373 373
 310 246 246 246 70 227 227 231 231 231 409 12 12 12 12 208 208 208 208 110
 110 110 327 327 327 296 310 310 310 310 310 310 246 299 227 227 227 227 227 206
 206 12 12 12 12 208 208 208 208 208 110 110 327 327 327 58 58 310 310 310
 310 310 299 299 299 227 227 227 206 206 206 206 12 12 12 208 208 208 208 208
 25 25 25 25 58 58 58 58 310 310 310 299 299 299 299 227 227 227 206 206
 206 206 206 12 12 208 208 208 208 171 25 25 25 25 188 188 58 58 310 310
 261 299 299 299 299 299 227 227 206 206 206 206 206 258 258 258 258 208 171 171
 171 25 25 188 188 188 188 58 310 261 261 299 299 299 299 299 299 131 131 131
 131 131 258 258 258 258 258 258 171 171 171 171 188 188 188 188 188 188 261 261
 261 299 299 299 299 299 299 131 131 131 131 131 258 258 258 258 258 258 171 171
 171 181 181 181 188 188 188 188 261 261 261 261 299 299 299 299 299 85 131 131
 131 33 258 258 258 258 258 258 258 171 171 181 181 181 181 188 86 86 261 261
 261 261 163 163 163 299 85 85 85 85 33 33 33 258 258 258 258 258 258 364
 364 364 181 181 181 399 86 86 86 261 261 163 163 163 163 163 85 85 85 33
 33 33 33 258 258 258 258 258 258 140 364 364 364 123 123 123 86 86 86 86
 163 163 163 163 163 101 85 85 85 85 33 33 33 258 258 258 54 54 54 140
 140 123 123 123 123 123 86 86 86 86 163 163 163 163 163 101 101 85 85 2
 2 124 124 124 124 54 54 54 54 140 140 123 123 123 123 123 371 342 86 238
 245 163 163 163 163 101 101 2 2 2 2 124 124 124 124 124 54 54 54 140
 140 123 123 123 123 123 342 342 342 34 34 252 252 252 272 272 272 2 2 2
 2 124 124 124 124 124 134 134 134 134 140 123 123 123 123 123 342 342 342 34
 34 252 252 252 272 272 272 2 2 2 124 124 124 124 124 124 134 134 134 134
 134 134 123 123 368 368 368 342 34 34 34 252 252 252 272 272 272 135 135 135
 124 124 124 124 124 124 134 134 134 134 134 9 9 9 368 368 368 34 34 34
 34 34 146 380 390 390 390 135 135 135 325 124 124 124 124 124 134 134 134 134
 134 9 9 9 368 368 368 34 34 34 146 146 146 146 390 390 390 384 384 325
 325 325 124 124 124 124 134 134 134 134 134 9 9 9 9 9 263 263 263 146
 146 146 146 146 259 259 259 384 384 384 325 325 325 124 124 130 130 130 130 130
 35 35 35 9 9 158 263 263 263 146 146 146 146 146 259 259 259 94 384 384
 384 287 287 221 221 130 130 130 130 130 35 35 35 9 158 158 263 263 263 146
 146 146 146 279 259 259 269 269 94 384 287 287 287 221 221 221 377 377 377 377
 35 35 35 9 158 263 263 263 263 263 279 279 279 279 269 269 269 269 94 287
 287 287 287 287 221 221 377 377 377 377 352 352 352 352 158 263 263 263 263 279
 121 121 121 121 269 269 269 269 269 287 287 287 287 287 221 221 377 377 377 352
 352 352 352 352 68 68 68 68 68 121 121 121 121 121 269 269 269 269 269 287
 287 287 287 287 221 221 377 377 28 28 352 352 352 352 68 68 68 68 68 373
 373 373 21 21 82 82 82 82 82 82 287 287 287 67 67 61 61 28 28 28
 28 352 352 352 68 68 68 68 373 373 373 373 21 21 21 82 82 82 82 82
 82 67 67 67 67 67 55 55 28 28 28 352 352 296 296 296 296 373 373 373
 373 373 21 21 21 82 82 82 82 82 82 67 67 67 67 67 55 55 28 28
 28 28 15 296 296 296 296 373 373 373 373 373 246 232 232 232 231 231 231 231
 231 67 67 67 67 55 55 55 55 28 28 229 15 15 296 296 296 296 373 373
 246 246 246 232 70 70 231 231 231 231 150 12 12 12 343 343 55 55 55 55
 229 229 229 327 296 296 296 296 373 373 246 246 246 246 70 70 231 231 231 231
 150 12 12 12 12 12 208 208 208 208 229 229 229 327 369 296 296 310 310 310
 310 246 246 246 70 70 227 227 227 227 150 12 12 12 12 12 208 208 208 208
 229 229 229 327 369 369 310 310 310 310 310 310 246 246 227 227 227 227 227 227
 150 12 12 12 12 12 208 208 208 208 110 229 229 327 369 369 310 310 310 310
 310 310 310 299 227 227 227 227 227 206 206 12 12 12 12 12 208 208 208 208
 208 75 75 75 93 58 310 310 310 310 310 310 299 299 299 227 227 227 227 206
 206 206 12 12 12 12 208 208 208 171 171 75 75 75 93 93 93 310 310 310
 310 299 299 299 299 227 227 227 206 206 206 206 12 12 328 258 208 208 171 171
 171 75 75 75 188 188 188 93 310 310 261 299 299 299 299 351 351 351 131 131
 131 131 258 258 258 258 258 258 171 171 171 75 75 75 188 188 188 93 93 261
 261 299 299 299 351 351 351 351 131 131 131 131 258 258 258 258 258 258 171 171
 171 75 181 181 188 188 188 93 93 261 261 261 299 351 351 351 351 351 351 131
 97 97 97 258 258 258 258 258 171 171 364 364 181 181 181 188 86 86 261 261
 261 163 163 163 351 351 351 85 85 85 97 97 97 258 258 258 258 258 364 364
 364 364 364 181 181 181 86 86 86 261 163 163 163 163 163 351 85 85 85 85
 97 97 97 258 258 258 258 258 140 140 364 364 364 364 123 86 86 86 86 238
 245 245 163 163 163 163 85 85 85 85 97 97 97 97 258 258 54 54 140 140
 140 364 123 123 123 123 86 86 238 238 245 245 163 163 163 163 272 85 85 85
 2 124 124 124 124 54 54 54 140 140 140 123 123 123 123 123 342 342 238 238
 245 245 245 163 272 272 272 272 2 2 2 124 124 124 124 124 54 54 140 140
 140 123 123 123 123 123 342 342 342 342 245 252 252 272 272 272 272 272 135 135
 135 124 124 124 124 124 134 134 134 140 140 123 123 123 123 342 342 342 342 342
 34 252 380 380 272 272 272 270 135 135 135 124 124 124 124 124 134 134 134 134
 140 19 19 19 19 368 342 342 342 342 34 380 380 380 380 272 270 270 135 135
 135 124 124 124 124 124 134 134 134 134 134 19 19 19 19 368 368 342 342 34
 14 14 380 380 380 272 270 270 135 135 135 124 124 124 124 124 134 134 134 134
 332 332 19 19 19 368 368 342 14 14 14 146 146 380 259 259 259 384 384 384
 384 325 124 124 124 124 130 130 130 130 332 332 332 9 9 158 158 263 14 14
 146 146 146 259 259 259 259 384 384 384 384 384 124 124 124 130 130 130 130 130
 35 35 35 9 158 158 158 158 14 14 146 146 146 259 259 259 259 384 384 384
 384 384 287 287 130 130 130 130 130 130 35 35 35 158 158 158 158 158 263 146
 146 146 121 121 259 259 269 269 384 384 384 287 287 287 221 130 130 130 130 130
 35 35 35 158 158 158 158 263 263 146 121 121 121 121 259 269 269 269 269 384
 287 287 287 287 221 130 130 130 130 130 352 352 352 352 158 158 158 263 263 121
 121 121 121 121 121 269 269 269 269 220 287 287 287 287 358 358 358 358 358 160
 160 160 160 160 68 68 68 68 121 121 121 121 121 121 121 82 82 82 82 220
 220 287 287 343 343 61 61 61 28 28 28 352 352 165 68 68 68 68 68 121
 121 121 21 21 21 82 82 82 82 82 220 343 343 343 343 61 61 61 28 28
 28 28 165 165 68 68 68 68 200 373 373 21 21 21 21 82 82 82 82 82
 82 343 343 343 343 61 61 61 28 28 28 28 165 165 165 68 200 200 200 200
 373 21 21 21 21 21 82 82 82 82 82 343 343 343 343 343 55 55 28 28
 28 28 15 15 296 296 200 200 200 200 246 246 232 232 232 21 231 231 231 231
 343 343 343 343 343 343 55 55 55 28 28 229 15 15 15 296 200 200 200 200
 246 246 246 232 70 70 70 231 231 231 150 343 343 343 343 343 55 55 55 55
 229 229 229 15 369 369 200 200 200 246 246 246 246 246 70 70 70 231 231 150
 150 150 12 12 12 12 55 55 55 229 229 229 229 369 369 369 369 310 310 310
 310 246 246 246 70 70 227 227 227 150 150 12 12 12 12 12 208 208 208 208
 229 229 229 369 369 369 396 310 310 310 310 310 246 246 227 227 227 227 227 227
 150 12 12 12 12 12 208 208 208 208 229 229 229 396 396 396 396 310 310 310
 310 310 310 310 227 227 227 227 227 227 136 12 12 12 12 12 208 208 208 208
 75 75 75 75 396 396 396 310 310 310 310 310 310 299 227 227 227 227 227 227
 136 136 12 12 12 12 208 208 208 171 75 75 75 75 93 93 93 310 310 310
 310 310 299 351 351 227 227 227 227 227 136 136 136 328 328 328 230 230 171 171
 75 75 75 75 93 93 93 93 310 310 13 13 13 351 351 351 351 351 227 227
 136 136 328 328 328 328 230 230 171 171 75 75 75 75 93 93 93 93 93 310
 13 13 13 351 351 351 351 351 351 351 97 97 97 328 328 258 258 230 171 171
 75 75 75 75 93 93 93 93 93 13 13 13 13 351 351 351 351 351 351 351
 97 97 97 97 258 258 192 192 192 364 364 364 364 181 93 93 93 93 13 13
 13 13 13 351 351 351 351 351 351 97 97 97 97 97 258 258 258 192 364 364
 364 364 364 364 181 93 86 86 238 13 238 13 163 351 351 351 351 351 85 97
 97 97 97 97 97 3 3 140 140 364 364 364 364 364 89 89 89 86 238 238
 238 245 245 163 163 351 351 351 85 97 97 97 97 97 97 3 3 140 140 140
 364 364 364 123 89 89 89 89 238 238 245 245 245 163 163 272 272 272 85 135
 97 97 97 97 3 3 3 140 140 140 140 140 123 123 89 89 89 342 238 238
 245 245 245 272 272 272 272 272 272 135 135 124 124 124 124 3 3 3 140 140
 140 140 123 89 89 89 342 342 342 342 245 245 245 272 272 272 272 272 135 135
 135 124 124 124 124 3 3 3 140 140 140 140 19 19 89 342 342 342 342 342
 34 380 380 380 272 272 272 270 135 135 135 124 124 124 124 124 134 134 134 140
 388 388 19 19 19 342 342 342 342 342 14 380 380 380 380 272 270 270 135 135
 135 124 124 124 124 124 134 134 134 134 388 388 19 19 19 19 342 342 342 342
 14 14 380 380 380 272 270 270 135 135 135 124 124 124 124 124 134 134 134 332
 332 332 19 19 19 19 368 129 14 14 14 146 380 259 259 259 259 384 384 384
 384 124 124 124 124 124 130 130 130 130 332 332 332 19 19 158 158 129 14 14
 14 146 146 259 259 259 259 384 384 384 384 384 124 124 124 130 130 130 130 130
 332 332 332 158 158 158 158 158 14 14 121 121 121 259 259 259 259 384 384 384
 384 384 287 124 130 130 130 130 130 130 130 35 35 158 158 158 158 158 14 146
 121 121 121 121 259 259 259 269 384 384 384 384 287 287 130 130 130 130 130 130
 160 160 160 158 158 158 158 158 121 121 121 121 121 121 259 259 269 269 269 384
 384 287 287 287 358 358 358 358 130 130 160 160 160 158 158 158 158 158 121 121
 121 121 121 121 121 269 269 269 220 220 220 220 287 318 358 358 358 358 358 160
 160 160 160 160 68 68 68 62 121 121 121 121 121 121 121 82 82 82 220 220
 220 220 220 343 61 61 61 61 61 28 160 160 160 165 68 68 68 68 121 121
 121 21 21 21 21 82 82 82 82 220 220 343 343 343 343 61 61 61 61 28
 28 165 165 165 165 68 68 200 200 200 21 21 21 21 21 82 82 82 82 82
 220 343 343 343 343 61 61 61 61 28 28 165 165 165 165 200 200 200 200 200
 200 21 21 21 21 21 82 82 82 82 343 343 343 343 343 343 61 61 61 28
 28 165 165 165 165 200 200 200 200 200 200 246 21 21 21 21 82 82 82 82
 343 343 343 343 343 343 55 55 55 55 28 229 15 15 200 200 200 200 200 200
 246 246 246 21 70 70 70 231 231 150 150 343 343 343 343 343 55 55 55 55
 229 229 229 15 369 369 200 200 200 200 246 246 246 246 70 70 70 227 150 150
 150 150 12 12 12 343 55 55 55 229 229 229 229 369 369 369 200 200 310 310
 310 246 246 246 70 70 227 227 227 150 150 12 12 12 12 12 208 208 208 229
 229 229 229 396 396 396 396 310 310 310 310 310 310 246 227 227 227 227 227 227
 150 12 12 12 12 12 208 208 208 208 229 229 229 396 396 396 396 310 310 310
 310 310 310 310 227 227 227 227 227 227 136 136 12 12 12 12 208 208 208 208
 75 75 75 75 396 396 396 310 310 310 310 310 310 310 227 227 227 227 227 227
 136 136 136 328 328 328 328 230 275 75 75 75 75 75 93 93 93 93 310 310
 310 310 13 351 351 351 227 227 227 227 136 136 136 328 328 328 230 230 230 75
 75 75 75 75 93 93 93 93 93 310 13 13 13 351 351 351 351 351 351 112
 136 136 328 328 328 328 230 230 230 75 75 75 75 75 93 93 93 93 93 13
 13 13 13 351 351 351 351 351 351 351 97 97 328 328 328 210 192 230 230 75
 75 75 75 75 93 93 93 93 93 13 13 13 13 351 351 351 351 351 351 351
 97 97 97 97 328 210 192 192 192 364 364 75 75 75 93 93 93 93 93 13
 13 13 13 351 351 351 351 351 351 351 97 97 97 97 97 192 192 192 192 364
 364 364 364 364 93 93 93 93 13 13 238 13 13 351 351 351 351 351 351 97
 97 97 97 97 97 3 3 3 140 364 364 364 364 364 89 89 89 89 238 238
 238 245 245 351 351 351 351 351 351 97 97 97 97 97 3 3 3 3 140 140
 364 364 364 89 89 89 89 89 238 238 245 245 245 163 272 272 272 351 351 97
 97 97 97 97 3 3 3 3 140 140 140 140 89 89 89 89 89 89 238 238
 245 245 245 272 272 272 272 272 272 135 135 97 97 3 3 3 3 3 140 140
 140 140 89 89 89 89 89 342 342 238 245 245 245 272 272 272 272 272 135 135
 135 135 124 124 3 3 3 3 140 140 140 388 388 89 89 89 342 342 342 342
 245 380 380 380 272 272 272 270 135 135 135 135 124 124 124 124 365 365 365 140
 388 388 388 19 19 89 342 342 342 342 14 380 380 380 380 272 270 270 135 135
 135 135 124 124 124 124 365 365 365 388 388 388 388 19 19 19 342 342 342 14
 14 14 380 380 380 272 270 270 135 135 135 135 124 124 124 124 365 365 365 365
 388 388 388 19 19 129 129 129 129 14 14 14 380 380 259 259 259 384 384 384
 384 384 124 124 124 130 130 130 130 130 332 332 332 19 19 129 129 129 129 14
 14 14 121 259 259 259 259 384 384 384 384 384 384 124 130 130 130 130 130 130
 332 332 332 332 158 158 158 129 129 14 121 121 121 259 259 259 259 384 384 384
 384 384 384 124 130 130 130 130 130 130 160 160 160 158 158 158 158 158 129 14
 121 121 121 121 259 259 259 384 384 384 384 384 287 287 130 130 358 130 130 130
 160 160 160 160 158 158 158 158 121 121 121 121 121 121 259 259 269 269 384 384
 384 384 287 318 358 358 358 358 130 160 160 160 160 160 158 158 158 62 121 121
 121 121 121 121 121 269 220 220 220 220 220 220 318 318 318 358 358 73 73 160
 160 160 160 160 160 68 62 62 62 121 121 121 121 121 121 82 220 220 220 220
 220 220 318 318 318 61 61 61 61 61 160 160 160 165 165 165 68 62 200 121
 336 336 21 21 21 82 82 82 220 220 220 343 343 343 343 61 61 61 61 61
 28 165 165 165 165 165 200 200 200 200 336 336 21 21 21 21 82 82 82 220
 220 343 343 343 343 61 61 61 61 61 28 165 165 165 165 200 200 200 200 200
 200 21 21 21 21 21 82 82 82 82 343 343 343 343 343 61 61 61 61 61
 61 165 165 165 165 200 200 200 200 200 200 21 21 21 21 21 82 82 82 343
 343 343 343 343 343 343 61 61 61 61 61 165 165 165 200 200 200 200 200 200
 200 246 21 21 21 21 70 231 264 150 150 343 343 343 343 343 343 55 55 55
 229 229 331 331 331 200 200 200 200 200 310 246 246 104 104 70 70 227 150 150
 150 343 343 343 343 343 343 55 55 55 229 229 331 331 331 396 200 200 200 310
 310 310 246 246 70 227 227 227 227 150 150 12 12 12 12 12 12 275 275 229
 229 229 331 331 396 396 396 396 310 310 310 310 310 104 227 227 227 227 227 227
 136 136 12 12 12 12 12 275 275 275 17 75 331 396 396 396 396 396 310 310
 310 310 310 310 227 227 227 227 227 136 136 136 136 12 12 12 275 275 275 275
 75 75 75 396 396 396 396 396 310 310 310 310 310 351 227 227 227 227 227 136
 136 136 136 328 328 328 328 275 275 75 75 75 75 75 93 93 93 93 310 310
 310 310 351 351 351 351 351 227 112 112 136 136 136 328 328 328 230 230 230 75
 75 75 75 75 93 93 93 93 93 310 13 13 13 351 351 351 351 351 112 112
 136 136 328 328 328 210 230 230 230 75 75 75 75 75 93 93 93 93 93 13
 13 13 13 351 351 351 351 351 351 112 112 136 328 328 328 210 192 230 230 75
 75 75 75 75 93 93 93 93 93 13 13 13 13 351 351 351 351 351 351 351
 97 97 97 97 210 210 192 192 192 75 75 75 75 75 93 93 93 93 93 13
 13 13 13 351 351 351 351 351 351 351 97 97 97 97 210 210 192 192 192 364
 364 364 364 75 93 93 93 93 13 13 13 13 13 351 351 351 351 351 351 351
 97 97 97 97 97 3 3 3 3 364 364 364 364 89 89 89 89 89 238 238
 238 245 245 351 351 351 351 351 351 97 97 97 97 97 3 3 3 3 3 140
 364 364 364 89 89 89 89 89 238 238 245 245 245 351 351 272 351 351 198 198
 97 97 323 323 3 3 3 3 3 140 140 23 89 89 89 89 89 89 238 238
 245 245 245 272 272 272 272 272 198 198 198 323 323 323 3 3 3 3 3 140
 140 140 89 89 89 89 89 89 342 238 245 51 51 51 272 272 272 272 198 198
 198 323 323 323 3 3 3 3 3 140 388 388 388 89 89 89 89 342 342 342
 51 51 51 51 51 272 272 191 135 135 135 135 323 323 124 3 365 365 365 388
 388 388 388 89 89 89 89 342 342 342 87 51 51 51 51 272 191 191 135 135
 135 135 124 124 124 124 365 365 365 388 388 388 388 388 41 41 129 129 129 129
 87 87 51 51 51 51 191 191 135 135 135 135 124 124 124 365 365 365 365 388
 388 388 388 388 41 129 129 129 129 129 87 87 87 87 51 259 259 384 384 384
 384 384 124 124 124 130 130 130 130 130 388 388 388 388 129 129 129 129 129 129
 87 87 87 87 259 259 259 384 384 384 384 384 384 262 262 130 130 130 130 130
 332 332 332 332 158 129 129 129 129 129 121 121 121 259 259 259 259 384 384 384
 384 384 384 262 130 130 130 130 130 130 160 160 160 160 158 158 158 129 129 129
 121 121 121 121 259 259 259 384 384 384 384 384 384 318 130 130 358 130 130 160
 160 160 160 160 158 158 158 62 62 121 121 121 121 121 121 259 269 384 384 220
 384 384 318 318 318 358 358 358 130 160 160 160 160 160 160 158 62 62 62 121
 121 121 121 121 121 138 220 220 220 220 220 220 318 318 318 318 73 73 73 160
 160 160 160 160 247 247 62 62 62 121 121 121 121 121 121 138 220 220 220 220
 220 220 318 318 318 73 73 73 73 73 160 160 160 165 247 247 247 62 62 121
 336 336 336 21 21 21 220 220 220 220 220 343 343 343 343 61 61 61 61 61
 370 370 165 165 165 247 200 200 200 200 336 336 336 21 21 21 82 82 220 220
 220 343 343 343 343 61 61 61 61 61 370 370 165 165 165 200 200 200 200 200
 336 336 336 21 21 21 82 82 82 220 343 343 343 343 343 61 61 61 61 61
 370 370 165 165 165 200 200 200 200 200 200 21 21 21 21 21 264 264 264 264
 343 343 343 343 343 343 61 61 61 61 370 331 331 331 331 200 200 200 200 200
 200 104 104 104 104 104 264 264 264 264 343 343 343 343 343 343 343 55 55 61
 331 331 331 331 331 200 200 200 200 200 310 104 104 104 104 104 264 264 264 264
 264 343 343 343 343 343 343 91 55 61 331 331 331 331 331 331 200 200 200 200
 310 310 104 104 104 408 408 264 264 264 264 343 343 343 343 343 343 275 275 17
 17 17 331 331 331 396 396 200 200 310 310 310 104 104 408 408 408 227 264 264
 136 136 12 12 12 12 275 275 275 275 17 17 17 396 396 396 396 396 310 310
 310 310 310 104 408 408 408 227 227 136 136 136 136 12 12 210 275 275 275 275
 17 17 75 396 396 396 396 396 310 310 310 310 310 133 133 133 133 133 112 112
 136 136 136 328 328 210 210 275 275 275 75 75 75 75 93 93 93 93 93 310
 13 13 133 133 133 133 133 133 112 112 136 136 136 328 328 210 210 230 275 75
 75 75 75 75 93 93 93 93 93 93 13 13 13 351 351 133 351 351 112 112
 112 136 328 328 210 210 210 230 230 75 75 75 75 75 93 93 93 93 93 13
 13 13 13 351 351 351 351 351 112 112 112 112 328 210 210 210 210 192 230 75
 75 75 75 75 93 93 93 93 93 13 13 13 13 351 351 351 351 351 351 112
 112 97 97 210 210 210 210 192 192 192 190 190 190 93 93 93 93 93 93 13