# vtk DataFile Version 2.0
Data set from IO Version 6.4.197.9a0dee2
ASCII

DATASET RECTILINEAR_GRID
DIMENSIONS 31 31 31
X_COORDINATES 31 float
-5.500000 5.500000 16.500000 27.500000 38.500000 49.500000 60.500000 71.500000 82.500000 93.500000 104.500000 115.500000 126.500000 137.500000 148.500000 159.500000 170.500000 181.500000 192.500000 203.500000 214.500000 
225.500000 236.500000 247.500000 258.500000 269.500000 280.500000 291.500000 302.500000 313.500000 324.500000 
Y_COORDINATES 31 float
-5.500000 5.500000 16.500000 27.500000 38.500000 49.500000 60.500000 71.500000 82.500000 93.500000 104.500000 115.500000 126.500000 137.500000 148.500000 159.500000 170.500000 181.500000 192.500000 203.500000 214.500000 
225.500000 236.500000 247.500000 258.500000 269.500000 280.500000 291.500000 302.500000 313.500000 324.500000 
Z_COORDINATES 31 float
-5.500000 5.500000 16.500000 27.500000 38.500000 49.500000 60.500000 71.500000 82.500000 93.500000 104.500000 115.500000 126.500000 137.500000 148.500000 159.500000 170.500000 181.500000 192.500000 203.500000 214.500000 
225.500000 236.500000 247.500000 258.500000 269.500000 280.500000 291.500000 302.500000 313.500000 324.500000 
CELL_DATA 27000
SCALARS FeatureIds int 1
LOOKUP_TABLE default
 273 273 273 273 85 85 85 85 81 81 81 81 81 81 113 113 358 358 358 358
 145 145 145 145 222 273 273 273 273 273 273 273 273 273 85 85 85 85 81 81
 81 81 81 113 113 113 306 306 306 358 145 222 222 222 222 222 273 273 273 273
 267 267 267 267 85 85 85 81 81 81 81 81 81 113 113 113 306 306 306 358
 222 222 222 222 222 222 222 267 267 267 267 267 267 33 33 33 85 81 81 81
 81 375 375 375 113 113 306 306 306 358 222 222 222 222 222 222 222 267 267 267
 267 267 33 33 33 33 33 386 386 386 375 375 375 375 375 360 360 360 360 360
 222 222 222 222 222 222 222 267 267 267 267 33 33 33 33 33 33 386 386 386
 375 375 375 375 375 360 360 360 360 131 131 222 222 222 222 230 230 267 267 267
 33 33 33 33 33 33 33 33 386 375 375 375 375 375 375 360 360 360 360 131
 131 131 222 222 222 222 230 267 267 267 191 191 33 33 33 33 33 33 40 40
 40 40 40 40 8 8 360 360 360 131 131 131 131 222 222 222 222 222 267 267
 191 191 191 33 33 102 102 102 40 40 40 40 40 40 8 8 8 8 131 131
 131 131 131 131 222 222 222 328 328 328 191 191 191 33 102 102 102 102 40 40
 40 40 40 40 8 8 8 8 131 131 131 131 131 131 160 160 14 328 328 328
 191 191 191 191 102 102 102 102 40 40 40 40 40 290 8 8 8 8 379 379
 379 379 160 160 160 160 14 14 328 328 328 191 128 128 128 102 102 102 40 40
 63 63 290 290 290 8 8 8 379 379 379 379 160 160 160 160 14 14 328 328
 328 105 128 128 128 128 311 311 311 63 63 63 63 290 290 290 187 187 379 379
 379 379 160 180 180 180 14 14 328 328 105 105 128 128 128 128 311 311 311 311
 63 63 63 187 187 187 187 187 379 379 379 379 180 180 180 313 313 313 313 313
 105 105 128 128 128 128 311 311 311 311 311 311 187 187 187 187 187 187 187 379
 379 379 180 180 180 313 313 313 313 313 154 105 128 128 141 141 311 311 311 311
 311 311 187 187 187 187 187 187 187 239 239 239 180 180 180 313 313 313 313 313
 154 154 141 141 141 141 141 311 311 311 311 311 187 187 187 187 187 187 187 239
 239 239 255 255 1 1 313 313 313 154 154 154 154 141 141 141 141 311 311 311
 311 311 187 215 215 215 187 187 187 239 239 239 255 255 1 1 1 313 154 154
 154 154 154 141 141 141 141 141 311 311 311 311 233 215 215 215 357 357 357 239
 239 239 255 255 1 1 1 154 154 154 154 154 154 141 141 141 141 141 311 311
 311 233 233 233 215 215 357 357 357 357 239 213 255 255 1 1 1 154 154 154
 353 353 353 371 371 371 371 371 371 311 233 233 233 233 233 233 357 357 357 357
 213 213 213 5 5 5 5 154 154 353 353 353 156 156 371 371 371 371 371 371
 233 233 233 233 233 233 194 194 194 194 213 213 213 5 5 5 5 5 353 353
 353 353 156 156 156 371 371 371 371 318 318 318 318 233 233 233 194 194 194 194
 213 213 213 5 5 5 5 5 353 353 353 156 156 156 156 156 371 371 318 318
 318 318 318 318 233 194 194 194 194 122 122 122 50 5 5 5 5 5 405 405
 405 156 156 156 156 156 156 371 318 318 318 318 318 318 28 28 194 194 122 122
 122 122 50 50 50 5 80 80 405 405 405 115 115 115 115 115 115 112 112 377
 377 377 377 28 28 28 28 122 122 122 122 122 50 50 50 80 80 80 405 405
 405 115 115 115 115 115 115 112 112 377 377 377 377 377 28 28 28 122 122 122
 122 122 50 50 50 80 80 80 405 405 273 115 115 115 115 115 85 85 377 377
 377 377 377 377 28 358 358 358 358 122 122 122 50 50 50 80 273 273 273 273
 273 273 115 115 115 85 85 85 85 377 377 377 377 377 358 358 358 358 358 358
 145 145 145 50 50 273 273 273 273 273 273 273 115 115 85 85 85 85 85 81
 81 86 86 86 358 358 358 358 358 358 145 145 145 145 50 273 273 273 273 273
 273 273 273 115 85 85 85 85 81 81 81 81 81 113 113 113 358 358 358 358
 145 145 145 145 123 123 273 273 273 273 273 273 273 115 64 64 85 85 81 81
 81 81 81 113 113 113 113 358 358 358 358 338 222 222 123 123 123 273 273 273
 267 267 267 64 64 64 64 81 81 81 81 81 81 113 113 113 113 358 358 358
 222 222 222 222 222 222 123 267 267 267 267 267 33 33 33 33 33 81 81 81
 81 81 81 113 113 113 113 360 360 360 222 222 222 222 222 222 222 267 267 267
 267 33 33 33 33 33 33 386 386 386 161 161 161 161 161 360 360 360 360 360
 222 222 222 222 222 222 222 236 267 267 33 33 33 33 33 33 33 33 386 386
 386 161 161 161 161 360 360 360 360 360 131 131 222 222 222 222 236 236 236 267
 33 33 33 33 33 33 33 33 386 386 161 161 161 161 161 360 360 360 360 131
 131 131 131 222 222 222 222 236 236 267 33 33 33 33 33 33 33 33 386 40
 40 40 161 161 161 360 360 360 360 131 131 131 131 131 222 222 222 236 236 328
 191 191 33 33 33 33 33 33 33 40 40 40 40 40 8 8 8 360 131 131
 131 131 131 131 222 222 192 328 328 328 191 191 33 33 33 33 33 33 296 40
 40 40 40 40 8 8 8 8 131 131 131 131 131 160 160 160 14 328 328 328
 328 191 191 33 33 33 102 296 296 40 63 63 290 290 290 8 8 379 379 379
 379 379 160 160 160 160 14 328 328 328 328 328 105 90 90 90 102 296 296 63
 63 63 290 290 290 290 8 379 379 379 379 379 160 160 160 160 14 328 328 328
 105 105 105 90 90 90 311 311 311 63 63 63 63 290 290 290 319 319 379 379
 379 379 160 160 160 160 14 328 328 328 105 105 105 90 90 311 311 311 311 311
 63 63 63 290 187 187 187 319 379 379 379 379 379 180 180 313 313 313 313 328
 105 105 105 90 90 311 311 311 311 311 311 63 70 187 187 187 187 187 379 379
 379 379 379 180 180 313 313 313 313 313 105 105 105 141 141 141 311 311 311 311
 311 311 187 187 187 187 187 187 403 239 239 239 255 255 313 313 313 313 313 313
 154 154 141 141 141 141 141 311 311 311 311 9 9 187 215 215 215 403 403 239
 239 239 255 255 255 313 313 313 313 313 154 154 141 141 141 141 141 311 311 311
 311 9 9 215 215 215 215 403 403 239 239 239 255 255 255 1 313 313 313 154
 154 154 141 141 141 141 141 141 311 311 311 9 215 215 215 215 215 403 403 403
 239 239 255 255 255 1 1 154 154 154 154 353 141 141 141 141 141 141 311 311
 311 233 233 215 215 215 215 403 403 403 213 213 213 383 383 1 138 138 154 154
 353 353 353 141 371 371 371 371 311 311 233 233 233 233 233 233 357 357 357 213
 213 213 213 383 383 5 138 138 353 353 353 353 156 156 156 371 371 371 143 143
 233 233 233 233 233 233 194 194 194 194 213 213 213 383 383 5 5 353 353 353
 353 353 156 156 156 156 371 371 143 143 318 318 318 233 233 194 194 194 194 194
 213 213 213 383 383 5 5 5 353 353 353 156 156 156 156 156 156 143 143 143
 318 318 318 318 194 194 194 194 194 194 122 213 383 383 383 5 5 398 353 353
 405 156 156 156 156 156 156 143 143 143 318 318 318 77 28 194 194 194 194 122
 122 50 50 50 50 50 398 398 405 405 405 405 115 115 115 115 112 112 112 377
 377 377 377 377 28 194 194 194 122 122 122 50 50 50 50 50 398 398 405 405
 405 115 115 115 115 115 112 112 112 377 377 377 377 377 28 358 358 358 122 122
 122 190 50 50 50 50 398 398 405 405 273 115 115 115 115 115 112 112 112 377
 377 377 377 377 377 358 358 358 358 358 190 190 190 50 50 50 273 273 273 273
 273 273 115 115 115 115 85 112 112 377 377 377 377 377 358 358 358 358 358 358
 190 190 190 190 50 273 273 273 273 273 273 273 115 115 115 85 85 85 112 81
 81 377 377 377 358 358 358 358 358 358 358 145 190 190 190 273 273 273 273 273
 273 273 273 115 64 64 64 85 81 81 81 81 363 363 363 113 358 358 358 358
 190 190 338 338 123 123 123 273 273 273 273 273 273 115 64 64 64 64 81 81
 81 81 363 363 113 113 113 358 358 358 358 338 338 338 123 123 123 273 273 273
 267 273 273 64 64 64 64 64 81 81 81 81 81 363 113 113 113 358 358 358
 338 338 338 338 123 123 123 123 267 267 267 33 33 33 64 64 64 81 81 81
 81 81 161 161 113 113 113 360 360 320 338 338 338 222 222 222 236 236 236 267
 33 33 33 33 33 33 33 161 161 161 161 161 161 161 161 113 360 360 360 360
 182 182 222 222 222 222 236 236 236 267 33 33 33 33 33 33 33 33 386 386
 161 161 161 161 161 360 360 360 360 360 182 182 182 222 222 222 236 236 236 236
 33 33 33 33 33 33 33 33 161 161 161 161 161 161 161 161 360 360 360 131
 131 131 131 222 222 222 236 236 236 236 33 33 33 33 33 33 33 33 161 161
 161 161 161 161 161 161 360 360 360 131 131 131 131 131 222 222 236 236 236 236
 33 33 33 33 33 33 33 296 296 40 248 248 248 161 161 8 376 360 131 131
 131 131 131 131 131 192 192 192 328 328 191 33 33 33 33 33 296 296 296 248
 248 248 248 248 290 8 376 379 379 131 131 131 131 131 160 160 192 328 328 328
 328 328 33 33 33 33 296 296 296 296 248 248 248 290 290 290 376 379 379 379
 379 379 160 160 160 160 14 328 328 328 328 90 90 90 90 90 296 296 296 63
 63 63 290 290 290 290 319 319 379 379 379 379 160 160 160 160 7 328 328 328
 105 105 90 90 90 90 90 311 311 63 63 63 70 290 70 70 319 319 319 379
 379 379 379 160 160 160 7 7 328 328 105 105 90 90 90 90 311 311 311 311
 63 63 70 70 70 70 319 319 319 379 379 379 379 379 160 313 7 7 7 328
 105 105 90 90 90 90 311 311 311 311 311 70 70 70 70 319 319 319 319 379
 379 379 379 409 409 313 313 313 313 313 105 105 90 90 90 141 311 311 311 311
 311 9 9 70 215 215 403 403 403 403 238 238 409 409 409 313 313 313 313 313
 154 154 90 141 141 141 141 311 311 311 9 9 9 215 215 215 403 403 403 403
 238 238 238 255 255 313 313 313 313 313 154 154 141 141 141 141 141 311 311 311
 9 9 9 215 215 215 403 403 403 403 238 238 255 255 255 313 313 313 313 313
 154 154 141 141 141 141 141 141 311 311 9 9 9 215 215 215 403 403 403 403
 403 238 255 255 255 1 138 138 138 154 353 202 202 141 141 141 141 141 311 311
 9 9 9 215 215 215 403 403 403 403 213 213 383 383 383 383 138 138 138 138
 353 202 202 202 359 359 359 359 311 143 9 233 233 380 380 380 380 403 403 213
 213 213 383 383 383 383 138 138 138 353 353 353 202 156 359 359 359 359 143 143
 143 233 233 380 380 380 194 194 194 194 213 213 383 383 383 383 138 138 353 353
 353 353 156 156 156 359 359 359 143 143 143 318 77 77 380 380 194 194 194 194
 213 383 383 383 383 383 383 353 353 353 353 353 156 156 156 156 359 143 143 143
 143 318 77 77 77 194 194 194 194 194 383 383 383 383 383 383 398 398 353 353
 405 156 156 156 156 156 112 143 143 143 143 318 77 77 12 12 194 194 194 194
 383 383 50 50 50 383 398 398 398 405 405 405 115 115 115 115 112 112 112 112
 377 377 377 77 12 12 12 194 194 122 190 190 50 50 50 50 398 398 398 405
 405 115 115 115 115 115 112 112 112 112 377 377 377 377 12 12 12 358 358 190
 190 190 190 50 50 50 398 398 398 405 273 115 115 115 115 115 112 112 112 112
 377 377 377 377 12 358 358 358 358 190 190 190 190 190 50 50 273 273 273 273
 273 273 115 115 115 115 112 112 112 112 377 377 377 377 289 289 358 358 358 358
 190 190 190 190 50 273 273 273 273 273 273 273 115 115 115 115 85 112 112 81
 81 377 377 289 289 289 358 358 358 358 190 190 190 190 190 273 273 273 273 273
 273 273 273 115 64 64 64 64 81 81 81 59 363 363 363 289 289 358 358 358
 190 190 338 338 123 123 123 273 273 273 273 332 332 64 64 64 64 64 81 81
 81 81 363 363 363 289 358 358 358 358 338 338 338 338 123 123 123 123 273 273
 273 332 332 64 64 64 64 64 81 81 81 81 363 363 363 113 113 358 320 320
 338 338 338 338 123 123 123 123 273 273 33 33 33 33 64 64 64 64 161 161
 161 161 161 161 161 113 113 320 320 320 320 338 338 338 123 123 123 236 236 236
 33 33 33 33 33 33 33 161 161 161 161 161 161 161 161 161 360 360 320 320
 182 182 182 222 222 236 236 236 236 236 33 33 33 33 33 33 33 33 161 161
 161 161 161 161 161 161 360 360 360 320 182 182 182 222 222 236 236 236 236 236
 33 33 33 33 33 33 33 33 161 161 161 161 161 161 161 161 360 360 360 131
 182 182 182 222 222 236 236 236 236 236 33 33 33 33 33 258 258 33 161 161
 161 161 161 161 161 161 163 163 163 131 131 131 131 131 142 192 236 236 236 236
 33 33 33 33 33 33 33 296 296 248 248 248 248 248 376 376 376 163 135 135
 131 131 131 142 142 192 192 192 192 328 33 33 33 33 33 33 296 296 296 248
 248 248 248 248 376 376 376 376 135 135 135 131 142 142 142 192 192 186 328 328
 328 33 33 33 33 33 296 296 296 248 248 248 248 248 376 376 376 376 379 379
 379 379 379 142 142 374 186 186 186 328 328 90 90 90 90 90 296 296 296 63
 63 70 70 70 376 376 376 319 319 379 379 379 379 160 160 186 186 186 328 328
 105 90 90 90 90 90 90 311 311 63 63 70 70 70 70 376 319 319 319 379
 379 379 379 379 160 7 7 7 7 328 105 90 90 90 90 90 311 311 311 300
 70 70 70 70 70 70 319 319 319 379 379 379 379 379 409 7 7 7 7 7
 105 90 90 90 90 90 311 311 311 311 70 70 70 70 70 319 319 319 319 319
 379 379 409 409 409 313 7 7 7 313 188 90 90 90 90 90 311 311 311 311
 311 9 70 70 70 403 403 319 319 319 238 238 238 409 409 313 313 313 313 313
 188 90 90 141 141 141 141 311 311 311 9 9 9 9 215 403 403 403 403 403
 238 238 238 409 409 185 185 185 185 185 154 141 141 141 141 141 141 311 311 9
 9 9 9 9 215 215 403 403 403 403 238 238 238 238 255 185 185 185 185 185
 202 202 141 141 294 294 294 141 311 9 9 9 9 9 215 215 403 403 403 403
 238 238 238 238 255 185 185 138 138 185 202 202 202 294 294 294 294 141 311 9
 9 9 9 380 380 380 403 403 403 403 383 383 383 383 383 383 138 138 138 185
 202 202 202 359 359 359 359 359 143 143 9 9 380 380 380 380 380 380 403 403
 383 383 383 383 383 383 138 138 138 353 353 202 202 359 359 359 359 359 143 143
 143 143 380 380 380 380 380 380 194 383 383 383 383 383 383 383 383 120 353 353
 353 202 202 156 359 359 359 359 143 143 143 143 77 77 380 380 380 194 194 194
 383 383 383 383 383 383 383 120 353 353 353 353 156 156 156 359 359 143 143 143
 143 143 77 77 77 380 194 194 194 194 383 383 383 383 383 383 398 398 398 353
 405 353 156 156 156 359 112 143 143 143 143 59 77 77 12 12 12 194 194 194
 383 383 383 383 383 383 398 398 398 405 134 134 134 115 115 115 112 112 112 143
 59 59 59 59 12 12 12 194 194 190 190 190 190 50 50 398 398 398 398 405
 134 134 134 115 115 115 112 112 112 112 59 59 59 59 12 12 12 358 358 190
 190 190 190 190 286 286 398 398 398 134 134 134 115 115 115 115 112 112 112 112
 59 59 59 59 289 289 358 358 358 190 190 190 190 190 286 286 286 398 273 273
 273 134 115 115 115 115 112 112 112 112 59 59 59 59 289 289 289 358 358 190
 190 190 190 190 286 286 286 273 273 273 273 273 115 115 115 64 112 112 112 59
 59 59 59 59 289 289 289 358 358 358 190 190 190 190 286 123 273 273 273 273
 332 332 332 332 64 64 64 64 209 209 209 209 59 363 289 289 289 358 358 358
 190 338 338 338 123 123 123 273 273 273 332 332 332 332 64 64 64 64 209 209
 209 209 363 363 363 289 358 358 358 320 320 338 338 338 123 123 123 123 273 273
 332 332 332 332 64 64 64 64 209 209 209 209 209 363 363 363 320 320 320 320
 320 338 338 338 123 123 123 123 273 273 118 118 118 33 64 64 64 64 161 161
 161 161 161 209 209 209 320 320 320 320 320 338 338 338 123 123 123 236 236 236
 118 118 118 33 33 33 33 161 161 161 161 161 161 161 161 161 163 320 320 320
 320 182 338 338 407 407 236 236 236 236 118 33 33 33 33 33 33 33 161 161
 161 161 161 161 161 161 163 163 163 320 182 182 182 182 407 407 236 236 236 236
 33 33 33 33 33 33 33 33 161 161 161 161 161 161 161 163 163 163 163 163
 182 182 182 182 142 407 236 236 236 236 33 33 33 33 33 33 33 33 161 161
 161 161 161 161 161 163 163 163 163 163 163 131 142 142 142 192 192 236 236 236
 33 33 33 33 33 33 33 296 296 296 248 248 248 248 376 163 163 163 135 135
 135 142 142 142 142 192 192 192 192 276 276 33 33 33 33 33 296 296 296 248
 248 248 248 248 376 376 376 376 135 135 135 142 142 142 142 192 192 192 192 276
 276 188 33 316 316 316 296 296 296 296 248 248 248 376 376 376 376 376 135 135
 135 379 142 142 142 374 186 186 186 276 276 188 90 316 316 316 316 296 296 296
 248 70 70 70 376 376 376 319 319 379 379 379 379 142 374 374 186 186 186 276
 188 90 90 90 90 316 316 300 300 300 70 70 70 70 70 89 319 319 319 319
 379 379 379 301 301 374 186 186 186 188 188 90 90 90 90 90 90 300 300 300
 300 70 70 70 70 89 319 319 319 319 379 379 301 301 301 374 7 7 7 188
 188 188 90 90 90 90 311 300 300 300 300 70 70 70 70 89 319 319 319 319
 379 379 301 301 409 409 7 7 7 188 188 188 90 90 90 90 311 311 300 300
 9 70 70 70 70 403 319 319 319 319 238 238 238 409 409 185 185 185 185 185
 188 188 169 90 141 141 141 311 311 9 9 9 9 9 215 403 403 403 403 403
 238 238 238 238 210 210 185 185 185 185 169 169 169 169 294 294 294 311 311 9
 9 9 9 9 215 403 403 403 403 403 238 238 238 238 210 210 185 185 185 185
 169 169 169 294 294 294 294 294 311 9 9 9 9 9 380 380 403 403 403 403
 238 238 238 238 210 185 185 185 185 185 202 202 202 294 294 294 294 294 126 126
 9 9 9 380 380 380 380 173 403 403 383 383 383 383 383 185 138 138 138 185
 202 202 202 202 359 359 359 359 126 126 126 9 380 380 380 380 380 380 380 403
 383 383 383 383 383 383 138 138 138 353 202 202 202 359 359 359 359 359 143 143
 143 380 380 380 380 380 380 380 380 383 383 383 383 383 383 383 120 120 120 353
 202 202 202 156 359 359 359 359 143 143 143 143 380 380 380 380 380 380 380 383
 383 383 383 383 383 383 120 120 120 353 353 353 156 156 156 359 359 143 143 143
 143 143 77 77 380 380 380 380 194 383 383 383 383 383 383 383 120 120 120 120
 134 134 134 156 156 359 112 143 143 143 143 59 77 77 380 12 12 194 194 190
 383 383 383 383 383 383 398 398 398 120 134 134 134 134 115 112 112 112 112 59
 59 59 59 59 12 12 12 12 190 190 190 190 190 383 286 286 398 398 398 134
 134 134 134 134 115 112 112 112 112 59 59 59 59 59 12 12 12 240 240 190
 190 190 190 286 286 286 286 398 398 134 134 134 134 134 115 115 112 112 112 59
 59 59 59 59 59 289 240 240 240 190 190 190 190 286 286 286 286 286 273 134
 134 134 134 134 115 115 112 112 112 59 59 59 59 59 289 289 289 240 240 190
 190 190 190 286 286 286 286 286 273 273 134 134 134 134 115 64 112 112 112 59
 59 59 59 59 289 289 289 240 240 190 190 190 190 286 286 286 286 286 273 273
 332 332 332 332 64 64 64 209 209 209 209 209 209 209 209 289 289 240 240 240
 240 338 338 338 123 123 123 273 273 273 332 332 332 332 64 64 64 209 209 209
 209 209 209 209 209 209 229 240 320 320 320 338 338 338 123 123 123 123 41 41
 332 332 332 332 64 64 64 64 209 209 209 209 209 209 209 209 229 320 320 320
 320 338 338 338 123 123 123 297 297 41 118 118 118 118 118 64 64 327 209 209
 209 209 209 209 209 209 320 320 320 320 320 338 338 338 407 407 297 297 297 297
 118 118 118 118 33 33 33 161 161 161 161 161 161 161 161 161 320 320 320 320
 320 182 338 407 407 407 407 297 297 118 118 118 118 33 33 33 33 33 161 161
 161 161 161 161 161 163 163 163 163 163 163 165 165 407 407 407 407 236 236 118
 118 118 33 33 33 33 33 33 161 161 161 161 161 161 161 163 163 163 163 163
 163 165 165 165 407 407 407 407 236 118 118 33 33 33 33 33 33 33 161 161
 161 161 161 161 342 163 163 163 163 163 163 165 165 142 142 192 192 192 236 118
 33 33 33 33 33 33 33 296 296 265 248 248 248 342 342 342 163 163 163 135
 135 142 142 142 142 192 192 192 192 276 276 33 33 316 316 33 33 296 296 248
 248 248 248 342 342 376 376 376 135 135 135 142 142 142 142 192 192 192 192 276
 276 188 316 316 316 316 316 296 296 296 248 248 253 253 376 376 376 376 135 135
 135 142 142 142 142 374 186 186 186 276 276 188 188 316 316 316 316 316 300 300
 248 253 253 253 376 376 376 376 319 135 379 379 142 142 374 374 186 186 186 276
 188 188 188 316 316 316 316 300 300 300 300 70 70 70 89 89 89 319 319 319
 379 379 301 301 301 374 186 186 186 188 188 188 188 90 316 316 316 300 300 300
 300 70 70 70 89 89 89 319 319 319 379 379 301 301 301 374 186 186 186 188
 188 188 188 188 90 90 300 300 300 300 300 70 70 70 89 89 89 319 319 319
 379 379 301 301 301 301 185 185 185 188 188 188 188 188 90 43 43 300 300 300
 300 157 157 157 157 89 319 319 319 319 319 238 238 238 409 185 185 185 185 185
 188 169 169 169 43 43 43 43 300 153 153 153 153 157 157 403 403 403 403 403
 238 238 238 238 210 210 185 185 185 185 169 169 169 169 43 43 43 43 43 153
 153 153 153 196 157 403 173 173 403 403 238 238 238 238 210 210 185 185 185 185
 169 169 169 169 43 43 43 43 43 153 153 153 196 196 380 380 173 173 173 403
 238 238 238 210 210 210 185 185 185 185 169 169 169 169 43 43 43 43 126 126
 126 196 196 196 380 380 173 173 173 173 383 383 383 383 210 185 185 185 185 185
 202 202 202 266 266 266 266 126 126 126 126 126 196 380 380 380 380 380 380 380
 383 383 383 383 383 383 185 185 185 185 202 202 202 202 266 266 266 126 126 126
 126 126 380 380 380 380 380 380 380 380 383 383 383 383 383 383 120 120 120 120
 202 202 202 36 266 266 266 266 143 126 143 228 380 380 380 380 380 380 380 380
 383 383 383 383 383 120 120 120 120 120 326 326 326 326 266 266 266 143 143 143
 228 228 380 380 380 380 380 380 380 237 383 383 383 383 383 120 120 120 120 120
 326 326 326 326 326 67 67 67 143 59 59 59 59 380 380 380 380 380 380 237
 190 383 383 383 383 120 120 120 120 120 134 134 134 134 134 67 67 67 67 59
 59 59 59 59 59 12 12 240 240 190 190 190 190 286 286 286 286 398 398 134
 134 134 134 134 134 67 67 67 67 59 59 59 59 59 59 12 240 240 240 240
 190 190 190 286 286 286 286 286 398 134 134 134 134 134 134 67 67 67 59 59
 59 59 59 59 59 59 240 240 240 240 190 190 388 286 286 286 286 286 286 134
 134 134 134 134 134 67 67 67 59 59 59 59 59 59 59 289 240 240 240 240
 190 190 190 286 286 286 286 286 286 134 134 134 134 134 134 64 67 67 59 59
 59 59 59 59 59 289 240 240 240 240 190 190 190 286 286 286 286 286 273 273
 332 332 332 332 66 66 66 209 209 209 209 209 209 209 229 229 229 240 26 26
 26 26 38 38 38 123 106 41 41 41 332 332 332 332 66 64 66 209 209 209
 209 209 209 209 229 229 229 26 26 26 26 26 38 38 38 123 297 41 41 41
 332 332 332 332 66 66 66 209 209 209 209 209 209 209 209 229 229 320 320 320
 320 320 38 38 38 297 297 297 297 41 118 118 118 118 118 118 66 327 327 209
 209 101 209 209 209 229 229 320 320 320 320 320 338 407 407 407 297 297 297 297
 118 118 118 118 118 118 327 327 327 161 161 101 209 209 209 163 163 163 320 320
 320 320 407 407 407 407 407 297 297 118 118 118 118 118 118 33 33 327 327 161
 161 161 161 161 163 163 163 163 163 163 163 165 165 407 407 407 407 407 118 118
 118 118 118 118 33 33 116 116 327 265 265 265 265 265 163 163 163 163 163 163
 163 165 165 165 407 407 407 407 118 118 118 118 118 33 33 33 116 116 116 265
 265 265 265 265 342 163 163 163 163 163 163 165 165 165 407 407 407 407 407 118
 118 118 33 33 33 33 33 116 265 265 265 265 265 342 342 342 342 163 163 135
 135 165 142 142 142 192 192 192 192 276 188 188 33 316 316 316 316 316 265 265
 265 265 265 342 342 342 342 342 135 135 135 142 142 142 142 192 192 192 192 276
 188 188 188 316 316 316 316 316 296 265 265 253 253 253 342 342 342 342 135 135
 135 142 142 142 142 374 186 186 186 276 188 188 188 316 316 316 316 316 300 300
 253 253 253 253 253 376 376 376 319 135 379 379 142 142 374 374 186 186 186 276
 188 188 188 316 316 316 316 300 300 300 300 253 253 253 253 89 89 319 319 319
 379 379 301 301 301 374 186 186 186 188 188 188 188 188 316 316 316 300 300 300
 300 157 157 70 89 89 89 319 319 319 379 379 301 301 301 374 186 186 188 188
 188 188 188 188 188 316 300 300 300 300 300 157 157 157 157 89 89 319 319 319
 76 76 301 301 301 301 185 185 188 188 188 188 188 188 188 43 300 300 300 300
 300 157 157 157 157 157 319 319 319 319 76 76 76 301 301 185 185 185 185 188
 169 169 169 169 43 43 43 43 300 153 153 153 153 157 157 157 403 403 403 403
 76 76 76 238 210 210 185 185 185 185 169 169 169 169 43 43 43 43 43 153
 153 153 153 196 157 157 173 173 173 173 238 238 238 210 210 210 185 185 185 185
 169 169 169 169 43 43 43 43 43 153 153 153 196 196 196 173 173 173 173 173
 155 238 238 387 387 210 185 185 185 185 169 169 169 169 43 43 43 43 126 126
 126 196 196 196 196 380 173 173 173 173 155 155 367 367 367 185 185 185 185 185
 36 36 36 36 266 266 266 43 126 126 126 126 196 196 380 380 380 380 380 380
 155 367 367 367 367 367 185 185 185 185 36 36 36 36 266 266 266 266 126 126
 126 126 196 380 380 380 380 380 380 380 367 367 367 367 367 367 120 120 120 11
 36 36 36 36 266 266 266 266 126 126 228 228 228 380 380 380 380 380 380 237
 237 367 367 367 367 120 120 120 120 120 326 326 326 326 266 266 266 67 126 126
 228 228 228 380 380 380 380 380 237 237 237 237 367 367 367 120 120 120 120 120
 326 326 326 326 326 266 67 67 67 228 228 228 228 380 380 380 380 380 237 237
 237 237 237 383 250 120 120 120 120 326 326 326 326 326 326 67 67 67 67 59
 59 59 59 59 59 380 380 240 237 237 237 237 388 250 250 286 286 120 120 326
 134 134 326 326 326 67 67 67 67 59 59 59 59 59 59 59 240 240 240 240
 388 388 388 286 286 286 286 286 286 134 134 134 134 134 134 67 67 67 67 59
 59 59 59 59 59 59 240 240 240 240 388 388 388 286 286 286 286 286 286 134
 134 134 134 134 134 67 67 67 67 59 59 59 59 59 59 59 240 240 240 240
 388 388 388 286 286 286 286 286 286 134 134 134 134 134 134 67 67 67 209 209
 209 59 59 59 59 240 240 240 240 240 240 388 388 286 286 286 286 286 286 134
 41 41 41 66 66 66 66 293 293 209 209 209 209 209 229 229 229 240 26 26
 26 26 38 38 38 106 106 41 41 41 41 41 41 66 66 66 66 66 209 209
 209 209 209 209 229 229 229 26 26 26 26 26 38 38 38 297 297 41 41 41
 41 41 41 66 66 66 66 66 209 209 209 209 209 209 209 229 229 26 26 26
 26 26 38 38 38 297 297 297 297 41 41 118 118 118 118 66 66 327 327 209
 101 101 101 209 209 229 229 320 320 320 320 264 264 407 407 407 297 297 297 297
 118 118 118 118 118 118 327 327 327 327 101 101 101 209 209 163 163 163 320 320
 264 264 264 407 407 407 407 297 297 118 118 118 118 118 118 118 327 327 327 327
 265 265 265 265 265 163 163 163 163 163 264 264 165 407 407 407 407 407 118 118
 118 118 118 118 118 116 116 116 327 265 265 265 265 265 265 163 163 163 163 163
 264 165 165 165 407 407 407 407 118 118 118 118 118 118 33 116 116 116 116 265
 265 265 265 265 342 342 163 163 163 163 163 165 165 165 407 407 407 407 118 118
 118 118 71 71 71 116 116 116 116 265 265 265 265 342 342 342 342 163 163 163
 163 165 165 165 142 407 407 280 280 118 188 71 71 71 71 316 116 116 265 265
 265 265 265 342 342 342 342 342 135 135 135 322 322 322 142 192 192 280 280 280
 188 188 188 316 316 316 316 316 265 265 265 253 253 253 342 342 342 342 135 135
 135 322 322 322 322 322 186 186 188 188 188 188 188 188 316 316 316 316 300 300
 265 253 253 253 253 253 342 342 314 314 314 314 322 322 322 374 186 186 188 188
 188 188 188 188 188 316 316 300 300 300 300 253 253 253 253 253 89 319 314 314
 314 314 301 301 301 374 186 186 188 188 188 188 188 188 188 316 300 300 300 300
 300 157 157 157 157 89 89 319 319 314 76 76 301 301 301 374 186 186 188 188
 188 188 188 188 188 188 300 300 300 300 300 157 157 157 157 157 89 319 319 319
 76 76 76 301 301 301 185 188 188 188 188 188 188 188 152 152 152 300 300 300
 153 157 157 157 157 157 157 319 319 76 76 76 76 76 350 185 185 185 185 188
 188 169 169 169 152 152 43 43 300 153 153 153 153 157 157 157 157 173 173 76
 76 76 76 76 387 185 185 185 185 185 169 169 169 169 152 43 43 43 43 153
 153 278 153 157 157 157 173 173 173 173 76 76 76 387 387 387 185 185 185 185
 169 169 169 169 43 43 43 43 43 153 153 153 196 196 196 196 173 173 173 173
 155 155 387 387 387 387 185 185 185 185 36 36 36 36 266 266 43 43 126 126
 126 196 196 196 196 380 380 173 173 155 155 155 155 367 387 387 185 185 185 11
 36 36 36 36 266 266 266 266 126 126 126 126 196 196 196 380 380 380 380 155
 155 155 367 367 367 367 11 11 11 11 36 36 36 36 266 266 266 266 126 126
 126 228 196 196 380 380 380 380 380 155 155 155 367 367 367 367 11 11 11 11
 36 36 36 36 266 266 266 266 126 126 228 228 228 121 121 121 380 380 237 237
 237 155 367 367 367 367 120 11 11 11 36 36 36 36 266 266 266 266 126 228
 228 228 228 121 121 121 121 121 237 237 237 237 367 367 367 120 120 120 11 11
 326 326 326 326 204 204 204 67 67 228 228 228 228 121 121 121 121 121 237 237
 237 237 237 250 250 250 120 120 120 326 326 326 326 326 204 204 67 67 67 59
 59 59 59 59 121 121 121 354 237 237 237 237 237 250 250 250 250 120 326 326
 326 326 326 326 204 67 67 67 67 59 59 59 59 59 59 354 354 354 354 388
 388 388 388 250 250 250 250 250 250 326 134 134 134 134 204 67 67 67 67 59
 59 59 59 59 59 354 354 240 240 240 388 388 388 250 250 250 250 286 286 134
 134 134 134 134 134 67 67 67 67 293 59 59 59 59 59 354 240 240 240 240
 388 388 388 388 250 250 286 286 286 41 41 134 134 134 134 66 67 293 293 293
 209 209 209 209 209 240 240 240 240 240 388 388 388 106 106 106 106 106 41 41
 41 41 41 66 66 66 66 293 293 293 209 209 209 209 229 229 229 240 26 26
 26 26 38 38 106 106 106 41 41 41 41 41 41 66 66 66 66 66 293 209
 209 209 209 209 229 229 229 26 26 26 26 26 38 38 38 106 106 41 41 41
 41 41 41 66 66 66 66 66 209 209 209 209 209 209 209 229 229 229 26 26
 26 26 38 38 38 297 297 297 41 41 41 41 118 118 66 66 66 327 327 327
 101 101 209 209 209 229 229 229 320 264 264 264 264 407 407 407 297 297 297 41
 118 118 118 118 61 61 327 327 327 327 265 101 265 265 209 27 27 27 264 264
 264 264 264 407 407 407 407 297 297 118 118 118 118 118 61 61 61 327 327 327
 265 265 265 265 265 27 27 27 27 264 264 264 264 407 407 407 407 407 407 118
 118 118 118 118 61 61 116 116 327 265 265 265 265 265 265 27 27 27 27 264
 264 264 264 407 407 407 407 407 118 118 118 118 118 71 71 116 116 116 116 265
 265 265 265 265 265 342 27 27 27 27 264 264 165 165 407 407 407 407 118 118
 118 71 71 71 71 116 116 116 265 265 265 265 265 265 342 342 342 27 27 27
 264 322 322 322 322 407 280 280 280 280 71 71 71 71 71 71 116 116 265 265
 265 265 265 342 342 342 342 342 27 314 314 322 322 322 322 322 280 280 280 280