# vtk DataFile Version 2.0
Data set from IO Version 6.4.197.9a0dee2
ASCII

DATASET RECTILINEAR_GRID
DIMENSIONS 31 31 31
X_COORDINATES 31 float
-5.500000 5.500000 16.500000 27.500000 38.500000 49.500000 60.500000 71.500000 82.500000 93.500000 104.500000 115.500000 126.500000 137.500000 148.500000 159.500000 170.500000 181.500000 192.500000 203.500000 214.500000 
225.500000 236.500000 247.500000 258.500000 269.500000 280.500000 291.500000 302.500000 313.500000 324.500000 
Y_COORDINATES 31 float
-5.500000 5.500000 16.500000 27.500000 38.500000 49.500000 60.500000 71.500000 82.500000 93.500000 104.500000 115.500000 126.500000 137.500000 148.500000 159.500000 170.500000 181.500000 192.500000 203.500000 214.500000 
225.500000 236.500000 247.500000 258.500000 269.500000 280.500000 291.500000 302.500000 313.500000 324.500000 
Z_COORDINATES 31 float
-5.500000 5.500000 16.500000 27.500000 38.500000 49.500000 60.500000 71.500000 82.500000 93.500000 104.500000 115.500000 126.500000 137.500000 148.500000 159.500000 170.500000 181.500000 192.500000 203.500000 214.500000 
225.500000 236.500000 247.500000 258.500000 269.500000 280.500000 291.500000 302.500000 313.500000 324.500000 
CELL_DATA 27000
SCALARS FeatureIds int 1
LOOKUP_TABLE default
 45 145 145 130 130 327 327 327 327 327 151 151 151 15 15 15 63 35 35 35
 35 357 357 357 320 320 45 45 45 45 145 145 145 145 130 327 327 327 327 327
 151 151 151 151 89 89 89 35 35 35 35 35 396 396 320 320 45 45 45 45
 145 145 145 145 327 327 327 327 327 327 151 151 151 151 89 89 89 89 35 35
 35 182 396 396 396 396 45 45 45 145 145 145 145 145 8 8 8 8 327 327
 151 151 151 89 89 89 89 89 35 35 182 182 396 396 396 396 84 84 84 145
 21 21 21 336 336 8 8 8 38 38 38 119 119 162 89 89 89 341 341 341
 182 182 396 396 396 396 84 84 84 84 21 21 21 336 336 336 336 8 38 38
 38 119 119 162 162 162 162 380 341 341 182 28 28 28 28 84 84 84 84 84
 21 21 134 134 336 336 336 336 38 38 38 38 162 162 162 162 380 380 380 380
 380 28 28 28 28 28 84 84 84 84 21 134 134 134 134 336 336 336 38 38
 38 162 162 162 162 162 380 380 380 380 380 28 28 28 28 268 84 84 84 84
 134 134 134 134 134 134 336 336 38 38 112 112 162 162 403 403 380 380 380 380
 380 28 28 28 268 268 268 47 47 84 134 134 134 296 296 296 296 135 135 135
 135 112 403 403 403 403 403 380 380 82 82 28 28 268 268 268 47 47 47 47
 134 134 296 296 296 296 20 135 135 135 135 135 3 3 403 403 403 82 82 82
 82 82 28 268 268 268 47 47 47 47 148 134 296 296 20 20 20 20 135 135
 135 135 3 3 3 403 403 82 82 82 82 82 82 268 268 294 294 294 294 294
 148 148 296 20 20 20 20 20 135 135 135 135 3 3 3 403 403 82 82 82
 82 82 111 111 294 294 294 294 294 294 263 263 20 20 20 20 20 20 222 222
 222 222 3 3 3 403 403 82 82 82 82 111 111 111 287 294 294 294 294 294
 263 263 20 20 20 20 20 20 222 222 222 222 284 284 284 284 284 82 82 82
 111 111 111 111 287 287 294 294 294 294 263 34 34 34 20 20 20 222 222 222
 222 222 284 284 284 284 284 288 288 288 111 111 111 111 287 287 287 294 294 294
 34 34 34 34 333 333 333 222 222 222 222 222 284 284 284 284 284 288 288 288
 48 111 111 111 287 287 287 294 294 375 34 34 34 34 333 333 333 333 222 222
 222 222 284 284 284 284 129 129 129 288 48 168 168 168 168 287 370 370 370 370
 34 34 34 34 243 243 243 243 12 12 12 12 204 204 204 204 129 129 129 129
 48 168 168 168 168 168 370 370 370 370 34 34 34 34 243 243 243 243 12 12
 12 12 204 204 204 129 129 129 129 129 48 168 168 168 168 168 370 370 370 370
 64 64 64 64 243 243 243 243 12 12 12 12 204 204 297 297 129 129 129 129
 25 168 168 168 168 168 370 370 370 370 64 64 64 64 64 243 243 243 12 12
 12 297 297 297 297 297 297 129 129 25 25 25 168 168 168 168 370 370 370 370
 64 64 64 64 64 243 243 32 32 32 32 297 297 297 297 297 297 129 25 25
 25 25 16 16 16 168 69 69 69 69 136 64 64 64 64 404 32 32 32 32
 32 297 297 297 297 297 108 108 25 25 25 25 16 16 16 16 69 69 69 69
 136 136 404 404 404 404 126 32 32 32 32 297 297 297 297 297 108 108 108 25
 25 25 16 16 16 16 69 69 136 136 136 136 404 404 404 404 126 126 32 32
 66 66 297 297 297 108 108 108 108 25 25 25 16 16 16 16 69 69 136 136
 136 136 404 404 404 404 27 27 27 66 66 66 66 66 66 108 108 108 108 108
 25 25 16 320 320 320 45 45 136 136 45 45 130 130 130 27 27 27 27 66
 66 66 66 66 66 108 108 108 108 108 357 357 357 320 320 320 45 45 45 45
 45 45 130 130 130 27 27 27 27 66 66 66 66 15 15 15 63 63 35 35
 357 357 357 357 320 320 45 45 45 45 45 45 130 130 130 130 327 327 327 66
 66 66 15 15 15 63 63 63 35 35 357 357 307 307 320 320 45 45 45 45
 45 45 130 130 130 327 327 327 327 327 151 151 151 151 151 63 63 63 63 35
 357 357 357 357 320 45 45 45 45 45 145 145 145 130 130 327 327 327 327 327
 151 151 151 151 151 89 89 63 35 35 35 357 357 396 320 45 45 45 45 45
 145 145 145 145 327 327 327 327 327 327 151 151 151 151 89 89 89 89 35 35
 182 182 182 396 396 396 45 45 45 45 145 145 145 145 8 8 8 8 327 38
 38 151 151 89 89 89 89 89 89 35 182 182 182 396 396 396 84 84 84 145
 145 145 145 336 8 8 8 8 38 38 38 38 162 162 89 89 89 89 341 182
 182 182 182 396 396 84 84 84 84 84 21 21 134 134 336 336 8 8 38 38
 38 38 162 162 162 162 162 380 380 380 182 28 28 28 28 84 84 84 84 84
 21 134 134 134 134 336 336 38 38 38 38 38 162 162 162 162 380 380 380 380
 380 28 28 28 28 28 84 84 84 84 134 134 134 134 134 134 336 38 38 38
 38 112 162 162 162 162 380 380 380 380 380 28 28 28 28 28 84 84 84 84
 134 134 134 134 134 134 227 227 38 112 112 112 112 162 403 403 380 380 380 380
 380 28 28 28 28 28 47 47 47 47 134 134 134 134 134 227 227 135 135 135
 112 112 112 403 403 403 403 380 82 82 82 28 28 28 28 47 47 47 47 47
 134 134 134 134 134 227 227 135 135 135 135 112 3 3 403 403 403 82 82 82
 82 82 328 328 328 328 47 47 47 47 148 148 148 20 20 20 20 135 135 135
 135 135 3 3 3 403 403 82 82 82 82 82 328 328 328 328 294 294 294 294
 148 148 148 20 20 20 20 20 135 135 135 135 3 3 3 403 403 82 82 82
 82 82 328 328 328 294 294 294 294 294 263 263 263 20 20 20 20 20 222 222
 222 222 3 3 3 403 403 82 82 82 82 82 328 328 328 294 294 294 294 294
 263 263 263 20 20 20 20 20 222 222 222 222 284 284 284 284 284 82 82 82
 82 225 225 225 225 294 294 294 294 294 263 263 263 20 20 20 20 222 222 222
 222 222 284 284 284 284 284 288 288 288 48 225 225 225 225 287 294 294 294 375
 263 263 34 34 333 333 333 222 222 222 222 222 284 284 284 284 288 288 288 288
 48 48 48 225 225 287 287 375 375 375 263 34 34 34 333 333 333 333 222 222
 222 222 204 204 204 288 288 288 288 288 48 48 48 168 168 287 370 370 370 370
 34 34 34 34 333 333 333 333 12 12 12 12 204 204 204 129 129 129 129 129
 48 48 168 168 168 168 370 370 370 370 34 34 34 34 243 243 243 12 12 12
 12 12 204 204 204 129 129 129 129 129 48 48 168 168 168 168 370 370 370 370
 179 179 64 64 64 243 243 12 12 12 12 12 204 204 204 129 129 129 129 129
 25 168 168 168 168 168 370 370 370 370 64 64 64 64 64 64 243 12 12 12
 12 297 297 297 297 297 129 129 129 25 25 168 168 168 168 168 370 370 370 370
 179 179 64 64 64 64 32 32 32 32 32 297 297 297 297 297 399 399 399 25
 25 16 16 16 16 168 69 69 69 69 179 179 179 64 64 404 32 32 32 32
 32 297 297 297 297 297 108 108 108 25 25 16 16 16 16 16 69 69 69 69
 136 179 179 404 404 404 126 126 32 32 32 297 297 297 297 108 108 108 108 25
 25 25 16 16 16 16 69 69 69 69 136 276 404 404 404 404 126 126 126 32
 66 66 66 297 297 108 108 108 108 108 25 25 16 16 16 16 69 69 136 136
 136 45 130 404 404 404 27 27 27 66 66 66 66 66 66 108 108 108 108 108
 25 357 16 16 16 16 45 45 45 45 45 45 130 130 130 27 27 27 27 66
 66 66 66 66 66 108 108 108 108 108 357 357 357 357 320 45 45 45 45 45
 45 45 130 130 130 130 27 27 27 66 66 66 66 66 66 63 63 63 63 63
 357 357 357 357 320 45 45 45 45 45 45 45 130 130 130 130 327 327 327 66
 66 66 66 66 66 63 63 63 63 35 307 307 307 307 320 45 45 45 45 45
 45 130 130 130 130 130 327 327 327 327 151 151 151 151 151 63 63 63 63 63
 357 357 357 357 45 45 45 45 45 45 45 145 130 130 130 327 327 327 327 327
 151 151 151 151 151 89 63 63 63 63 35 357 364 364 364 45 45 45 45 45
 90 90 145 130 130 327 327 327 327 327 151 151 151 151 89 89 89 89 63 35
 182 182 364 364 364 364 45 45 45 45 90 90 90 90 8 8 8 327 327 38
 38 151 151 89 89 89 89 89 89 182 182 182 364 364 364 364 84 84 84 84
 90 90 90 90 8 8 8 8 38 38 38 38 162 162 162 89 89 89 89 182
 182 182 364 364 11 11 84 84 84 84 21 134 134 134 134 8 8 38 38 38
 38 38 162 162 162 162 162 380 380 167 167 167 28 28 11 11 84 84 84 84
 134 134 134 134 134 134 336 38 38 38 38 38 162 162 162 162 162 380 380 167
 167 28 28 28 28 11 84 84 84 84 134 134 134 134 134 134 227 227 38 112
 112 112 162 162 162 162 380 380 380 380 167 28 28 28 28 28 84 84 84 84
 134 134 134 134 134 227 227 227 112 112 112 112 112 162 403 403 380 380 380 167
 167 167 28 28 28 28 47 47 47 84 134 134 134 134 227 227 227 227 135 112
 112 112 112 112 403 403 403 403 380 82 167 167 28 28 28 328 47 47 47 47
 148 148 148 134 227 227 227 227 135 135 112 112 112 3 403 403 403 403 82 82
 82 328 328 328 328 328 47 47 47 148 148 148 148 148 20 20 20 135 135 135
 135 112 3 3 3 403 403 82 82 82 82 328 328 328 328 328 294 294 294 148
 148 148 148 20 20 20 20 20 135 135 135 135 376 376 3 403 403 82 82 82
 82 328 328 328 328 328 294 294 294 294 263 263 263 20 20 20 20 20 222 222
 222 222 376 376 376 376 403 82 82 82 82 328 328 328 328 294 294 294 294 294
 263 263 263 20 20 20 20 222 222 222 222 222 376 376 376 376 376 288 288 82
 82 225 225 225 225 294 294 294 294 375 263 263 263 263 20 20 20 222 222 222
 222 222 41 41 376 376 288 288 288 288 48 225 225 225 225 225 294 294 375 375
 263 263 263 263 333 333 333 222 222 222 222 222 41 41 117 117 288 288 288 288
 48 48 48 225 225 225 287 375 375 375 375 263 263 333 333 333 333 333 222 222
 222 222 41 204 204 288 288 288 288 288 48 48 48 48 225 225 370 375 375 375
 375 34 34 333 333 333 333 333 12 12 12 12 204 204 204 204 129 129 288 48
 48 48 48 168 168 168 370 370 370 370 179 179 179 373 373 373 373 12 12 12
 12 12 204 204 204 129 129 129 129 129 48 48 168 168 168 99 99 370 370 370
 179 179 179 64 64 373 373 12 12 12 12 12 204 204 204 204 129 129 129 129
 48 48 127 127 168 99 99 99 99 179 179 179 179 64 64 64 373 12 12 12
 12 297 297 297 297 297 399 399 399 399 25 127 127 127 127 99 99 99 99 179
 179 179 179 64 64 64 32 32 32 32 32 297 297 297 297 399 399 399 399 399
 25 16 16 16 16 99 99 69 69 179 179 179 179 179 179 404 32 32 32 32
 32 297 297 297 297 399 399 399 399 399 25 16 16 16 16 16 69 69 69 69
 276 179 179 404 404 404 126 32 32 32 32 32 297 297 297 108 108 108 108 108
 25 16 16 16 16 16 69 69 69 276 276 276 276 404 404 404 126 126 32 32
 32 66 66 66 297 108 108 108 108 108 316 316 316 16 16 16 69 276 276 276
 276 276 130 404 404 404 27 27 27 66 66 66 66 66 66 108 108 108 108 108
 316 316 316 316 316 45 45 45 45 276 45 130 130 130 130 130 27 27 27 66
 66 66 66 66 66 108 108 108 108 108 316 316 316 316 316 45 45 45 45 45
 45 130 130 130 130 130 27 27 27 66 66 66 66 66 66 63 63 63 63 63
 357 357 357 316 45 45 45 45 45 45 45 130 130 130 130 130 327 327 327 66
 66 66 66 66 66 63 63 63 63 63 307 357 357 307 45 45 45 45 45 45
 45 130 130 130 130 130 327 327 327 327 177 151 151 368 368 368 63 322 63 63
 357 331 331 331 331 45 45 45 45 45 45 130 130 130 130 130 327 327 327 327
 151 151 151 151 368 368 63 322 63 63 364 364 364 364 364 45 45 45 45 45
 90 90 90 130 130 327 75 75 75 75 102 102 151 151 89 89 89 89 63 203
 364 364 364 364 364 364 398 398 45 45 90 90 90 90 130 75 75 75 75 75
 102 102 102 89 89 89 89 89 89 203 364 364 364 364 364 398 398 398 398 90
 90 90 90 90 75 75 75 75 75 38 38 102 162 162 162 89 89 89 89 167
 167 364 364 364 11 11 11 84 84 84 90 90 134 134 134 8 75 75 38 38
 38 38 162 162 162 162 162 380 380 167 167 167 167 364 11 11 11 84 84 84
 134 134 134 134 134 134 134 75 38 38 38 162 162 162 162 162 162 380 380 167
 167 167 167 28 11 11 11 84 84 84 134 134 134 134 134 227 227 227 112 112
 112 112 112 162 162 162 380 380 380 167 167 167 167 28 28 28 84 84 84 84
 134 134 134 134 227 227 227 227 227 112 112 112 112 112 162 403 380 380 167 167
 167 167 167 28 28 28 68 68 68 68 134 134 134 134 227 227 227 227 135 112
 112 112 112 112 403 403 403 403 167 167 167 167 328 328 328 328 68 68 68 68
 148 148 148 148 227 227 227 227 135 112 112 112 112 112 403 403 403 403 82 82
 328 328 328 328 328 328 68 68 68 148 148 148 148 148 227 227 227 147 147 55
 112 112 112 112 3 403 403 82 82 82 328 328 328 328 328 328 328 68 68 148
 148 148 148 148 20 20 147 147 147 55 55 41 376 376 376 376 110 110 82 82
 328 328 328 328 328 328 294 294 294 148 263 263 263 20 20 20 147 147 147 147
 41 41 376 376 376 376 110 110 110 82 328 328 328 328 328 328 294 294 294 375
 263 263 263 263 20 20 147 147 147 222 41 41 41 376 376 376 110 110 110 118
 225 225 225 225 225 225 294 294 375 375 263 263 263 263 20 20 147 147 222 222
 41 41 41 41 376 117 117 288 288 118 48 225 225 225 225 225 294 375 375 375
 375 263 263 263 333 333 333 222 222 222 41 41 41 41 117 117 288 288 288 118
 48 48 48 225 225 225 225 375 375 375 375 263 263 263 333 333 373 373 222 222
 41 41 41 41 41 117 288 288 288 118 48 48 48 48 225 225 375 375 375 375
 375 263 263 373 373 373 373 373 12 12 12 41 41 204 397 397 397 288 118 118
 48 48 48 48 168 168 370 370 375 375 179 179 179 373 373 373 373 373 12 12
 12 12 204 204 397 397 397 129 118 118 48 48 48 168 99 99 99 99 99 208
 179 179 179 179 373 373 373 373 12 12 12 12 204 204 397 397 397 129 118 118
 48 127 127 127 99 99 99 99 99 179 179 179 179 179 179 373 373 373 32 12
 116 116 297 297 397 399 399 399 399 399 127 127 127 127 127 99 99 99 99 179
 179 179 179 179 179 373 373 32 32 32 32 116 297 297 297 399 399 399 399 399
 399 127 127 127 127 99 99 99 99 179 179 179 179 179 179 42 42 32 32 32
 32 297 297 297 297 399 399 399 399 399 399 16 16 16 16 99 99 276 276 276
 276 276 179 179 42 42 42 32 32 32 32 32 297 297 297 399 399 399 399 399
 316 316 316 16 16 99 276 276 276 276 276 276 276 42 42 42 42 177 177 177
 177 66 66 66 108 108 108 108 108 108 316 316 316 316 316 253 276 276 276 276
 276 276 130 130 42 42 42 177 177 177 177 66 66 66 66 108 108 108 108 108
 316 316 316 316 316 316 276 276 276 276 276 130 130 130 130 130 27 27 177 177
 177 66 66 66 368 368 368 63 63 63 316 316 316 316 316 45 45 45 45 45
 45 130 130 130 130 130 130 27 177 177 177 66 66 66 368 368 63 322 63 63
 316 316 316 331 331 45 45 45 45 45 45 130 130 130 130 130 130 327 327 177
 177 66 66 368 368 368 63 322 63 63 307 357 331 331 331 45 45 45 45 45
 45 130 130 130 130 130 130 327 327 177 177 177 95 368 368 368 368 368 63 203
 203 331 331 331 331 331 273 45 45 45 45 130 130 130 130 130 75 75 75 75
 102 102 95 95 368 368 368 368 203 203 203 364 364 364 331 273 273 273 45 45
 90 90 90 130 130 75 75 75 75 75 102 102 102 95 95 368 89 368 203 203
 203 364 364 364 364 273 398 398 398 398 90 90 90 90 130 75 75 75 75 75
 102 102 102 102 89 178 89 89 203 203 364 364 364 364 364 398 398 398 398 398
 90 90 90 90 75 75 75 75 75 75 102 102 102 102 178 178 178 178 167 167
 167 364 364 364 364 11 398 398 398 398 90 90 90 134 134 75 75 75 75 75
 102 102 102 162 178 178 178 178 167 167 167 167 167 364 11 11 11 398 398 303
 303 134 134 134 134 134 75 75 75 378 378 378 378 162 162 178 178 380 167 167
 167 167 167 167 11 11 11 84 303 303 303 134 134 134 134 227 227 227 112 112
 112 112 378 378 162 162 380 380 167 167 167 167 167 167 167 68 68 68 303 303
 303 134 134 134 227 227 227 227 112 112 112 112 112 112 365 365 365 380 167 167
 167 167 167 167 167 68 68 68 68 303 148 148 134 134 227 227 227 227 55 112
 112 112 112 112 365 365 365 365 167 167 167 167 167 328 328 68 68 68 68 68
 148 148 148 148 227 227 227 147 55 55 112 112 112 112 365 365 365 365 167 167
 167 328 328 328 328 328 68 68 68 68 148 148 148 148 227 227 147 147 55 55
 55 112 112 112 365 365 110 110 110 82 328 328 328 328 328 328 68 68 68 148
 148 148 148 148 147 147 147 147 147 55 55 41 376 376 376 110 110 110 110 110
 405 405 328 328 328 328 294 294 294 329 263 263 263 263 14 147 147 147 147 147
 41 41 41 376 376 110 110 110 110 110 405 405 405 328 328 328 294 375 375 329
 263 263 263 263 14 147 147 147 147 41 41 41 41 41 376 110 110 110 110 118
 405 405 225 225 225 225 294 375 375 375 375 263 263 263 14 14 147 147 147 41
 41 41 41 41 117 117 117 118 118 118 118 48 225 225 225 225 225 375 375 375
 375 263 263 263 14 14 147 147 147 41 41 41 41 41 117 117 117 118 118 118
 118 48 48 225 225 225 225 375 375 375 375 263 263 373 373 373 373 373 373 41
 41 41 41 41 117 117 397 118 118 118 118 48 48 48 225 225 375 375 375 375
 208 208 373 373 373 373 373 373 373 41 41 41 41 397 397 397 397 118 118 118
 118 48 48 48 225 99 99 375 208 208 208 179 179 373 373 373 373 373 373 12
 12 41 41 397 397 397 397 397 118 118 118 48 48 48 99 99 99 99 208 208
 179 179 179 179 373 373 373 373 373 12 116 116 397 397 397 397 397 397 118 118
 118 48 127 127 99 99 87 99 208 208 179 179 179 179 373 373 373 373 373 116
 116 116 116 397 397 397 399 399 399 399 43 127 127 127 127 99 99 99 99 179
 179 179 179 179 179 373 373 373 32 116 116 116 116 106 397 399 399 399 399 399
 399 127 127 127 99 99 99 99 276 179 276 179 179 179 179 42 42 42 32 116
 116 116 106 106 106 399 399 399 399 399 399 316 16 16 99 99 99 276 276 276
 276 276 179 42 42 42 42 42 177 177 177 177 106 106 106 399 399 399 399 399
 316 316 316 316 253 253 276 276 276 276 276 276 276 42 42 42 42 177 177 177
 177 177 106 106 106 399 399 399 399 324 316 316 316 316 253 253 253 276 276 276
 276 276 276 42 42 42 42 177 177 177 177 177 177 106 106 368 108 108 108 316
 316 316 316 316 253 253 253 276 276 276 276 276 130 130 130 42 42 177 177 177
 177 177 177 368 368 368 368 322 63 316 316 316 316 316 253 253 253 276 276 276
 276 130 130 130 130 130 130 177 177 177 177 177 177 368 368 368 368 322 63 63
 316 316 316 331 331 331 45 45 45 45 45 130 130 130 130 130 130 177 177 177
 177 177 177 368 368 368 368 322 63 63 307 331 331 331 331 331 45 45 45 45
 45 130 130 130 130 130 130 327 177 177 177 177 95 95 368 368 368 368 203 203
 203 331 331 331 331 331 273 214 214 214 45 130 130 130 130 75 75 75 75 75
 102 102 95 95 95 368 368 368 203 203 203 364 364 331 331 273 273 273 398 398
 90 90 90 130 130 75 75 75 75 75 102 102 102 95 95 368 368 368 203 203
 203 364 364 364 364 273 398 398 398 398 90 90 90 57 75 75 75 75 75 75
 102 102 102 102 178 178 178 178 203 203 364 364 364 364 364 398 398 398 398 398
 90 90 57 57 57 75 75 75 75 75 102 102 102 102 178 178 178 178 167 167
 167 364 364 364 364 398 398 398 398 398 303 57 57 57 57 75 75 75 75 378
 378 378 378 378 178 178 178 178 167 167 167 167 167 364 364 11 398 398 398 303
 303 303 57 57 57 75 75 75 378 378 378 378 378 378 178 178 178 178 167 167
 167 167 167 167 167 11 11 398 303 303 303 303 134 134 134 227 227 227 378 378
 378 378 378 378 378 178 178 167 167 167 167 167 167 167 167 68 68 68 303 303
 303 303 134 134 227 227 366 366 378 378 378 378 378 378 365 365 365 365 167 167
 167 167 167 167 167 68 68 68 68 303 395 395 395 395 227 227 366 366 55 55
 112 112 378 378 365 365 365 365 167 167 167 167 167 167 328 68 68 68 68 68
 395 395 395 395 227 227 147 147 55 55 55 112 112 112 365 365 365 110 167 167
 167 167 328 328 328 68 68 68 68 68 395 395 395 395 227 147 147 147 55 55
 55 55 112 112 365 110 110 110 110 110 328 328 328 328 328 382 382 68 68 395
 395 395 395 395 147 147 147 147 147 55 55 41 41 41 376 110 110 110 110 110
 405 405 405 328 382 382 382 382 329 329 329 395 395 14 14 147 147 147 147 147
 41 41 41 41 41 110 110 110 110 110 405 405 405 405 382 382 382 382 329 329
 375 263 263 14 14 14 147 147 147 41 41 41 41 41 41 110 110 110 110 118
 405 405 405 225 225 225 382 375 375 329 375 263 263 14 14 14 147 147 147 41
 41 41 41 41 117 117 110 110 118 118 118 118 225 225 225 225 375 375 375 375
 375 263 263 14 14 14 14 147 147 41 41 41 41 41 117 117 117 118 118 118
 118 118 48 225 225 225 375 375 375 375 375 263 263 373 373 373 373 373 373 41
 41 41 41 41 117 117 397 118 118 118 118 118 48 48 225 122 375 375 375 375
 208 208 373 373 373 373 373 373 373 41 41 41 41 397 397 397 397 118 118 118
 118 118 48 48 122 122 122 208 208 208 208 179 179 373 373 373 373 373 373 373
 41 41 41 397 397 397 397 397 118 118 118 118 48 43 271 99 99 208 208 208
 208 179 179 373 373 373 373 373 373 373 116 116 397 397 397 397 397 397 118 118
 43 43 43 127 271 99 99 208 208 208 179 179 179 179 373 373 373 373 373 116
 116 116 116 397 397 397 397 397 399 43 43 43 43 127 271 99 99 99 208 179
 179 179 179 179 179 143 143 143 116 116 116 116 116 116 397 399 399 399 399 43
 43 43 43 127 271 271 99 99 276 276 276 179 179 179 42 42 42 42 116 116
 116 116 106 106 106 106 399 399 399 324 43 43 43 253 271 271 276 276 276 276
 276 276 179 42 42 42 42 42 177 177 177 177 106 106 106 106 399 399 324 324
 324 316 316 253 253 253 253 276 276 276 276 276 276 42 42 42 42 42 177 177
 177 177 106 106 106 106 399 324 324 324 324 316 316 316 253 253 253 276 276 276
 276 276 276 42 42 42 42 177 177 177 177 177 106 106 106 368 368 324 324 324
 316 316 316 316 253 253 253 276 276 276 276 276 130 130 42 42 42 177 177 177
 177 177 177 368 368 368 368 368 324 324 316 316 316 316 253 253 253 276 276 276
 276 130 130 130 130 130 130 177 177 177 177 177 177 368 368 368 368 368 63 324
 316 316 331 331 331 253 214 214 214 276 45 130 130 130 130 130 130 177 177 177
 177 177 177 368 368 368 368 368 63 63 316 331 331 331 331 331 214 214 214 45
 392 130 130 130 130 130 75 177 177 177 177 177 95 368 368 368 368 368 203 203
 203 331 331 331 331 214 214 214 214 214 392 130 130 130 130 75 75 75 75 75
 102 102 95 95 368 368 368 51 203 203 203 331 364 190 190 273 273 398 398 398
 90 57 57 130 75 75 75 75 75 75 102 102 102 95 95 173 368 51 203 203
 203 364 364 364 386 386 398 398 398 398 57 57 57 57 57 75 75 75 75 75
 102 102 102 102 178 178 178 51 239 239 239 364 364 364 386 386 398 398 398 398
 57 57 57 57 57 75 75 75 75 75 102 102 102 102 178 178 178 178 239 239
 239 167 364 364 386 386 398 398 398 398 57 57 57 57 57 57 75 75 75 378
 378 378 378 378 178 178 178 239 239 239 239 167 167 167 167 386 398 398 398 303
 303 57 57 57 57 57 75 75 378 378 378 378 378 378 178 178 178 178 239 239
 167 167 167 167 167 386 398 398 303 303 303 303 57 57 57 57 366 378 378 378
 378 378 378 378 378 178 178 167 167 167 167 167 167 167 167 68 68 68 303 303
 303 395 395 57 227 366 366 366 378 378 378 378 378 378 378 365 365 365 167 167
 167 167 167 167 167 68 68 68 68 303 395 395 395 395 227 366 366 366 378 378
 378 378 378 378 365 365 365 365 167 167 167 167 167 167 167 68 68 68 68 68
 395 395 395 395 395 366 366 366 55 55 55 378 378 378 365 365 365 110 110 167
 167 167 167 382 382 382 382 68 68 395 395 395 395 395 395 147 147 147 55 55
 55 55 378 378 365 110 110 110 110 110 167 328 328 382 382 382 382 382 395 395
 395 395 395 395 147 147 147 147 147 55 55 41 41 41 110 110 110 110 110 110
 405 405 405 382 382 382 382 382 395 395 395 395 395 14 14 14 147 147 147 147
 41 41 41 41 110 110 110 110 110 110 405 405 405 382 382 382 382 382 395 329
 395 395 395 14 14 14 14 147 147 41 41 41 41 41 221 221 110 110 110 110
 405 405 405 382 382 382 382 382 375 329 375 263 14 14 14 14 14 147 147 41
 41 41 41 41 221 221 221 110 110 118 118 118 225 225 122 122 122 122 375 375
 19 263 14 14 14 14 14 14 147 41 41 41 41 41 221 221 221 118 118 118
 118 118 48 122 122 122 122 122 19 19 19 19 14 14 14 14 373 373 373 41
 41 41 41 41 397 397 397 118 118 118 118 118 48 122 122 122 122 122 19 19
 208 208 373 373 373 373 373 373 373 41 41 41 350 350 397 397 397 118 118 118
 118 118 43 122 122 122 122 122 208 208 208 179 373 373 373 373 373 373 373 373
 41 41 350 350 397 397 397 397 118 118 118 43 43 43 271 271 271 4 208 208
 208 179 179 373 373 373 373 373 373 116 116 350 350 350 397 397 397 397 118 43
 43 43 43 43 271 271 271 208 208 208 179 179 179 179 373 373 373 373 373 116
 116 116 350 350 397 397 397 397 43 43 43 43 43 43 271 271 271 271 208 179
 179 179 179 179 143 143 143 143 143 116 116 116 116 106 397 397 399 399 399 43
 43 43 43 43 271 271 271 276 276 276 276 179 179 179 143 143 143 143 143 116
 116 116 106 106 106 106 399 324 324 324 43 43 43 43 271 271 271 276 276 276
 276 276 276 42 42 42 42 42 177 177 177 116 106 106 106 106 399 324 324 324
 324 324 316 253 253 253 253 276 276 276 276 276 276 42 42 42 42 177 177 177
 177 177 106 106 106 106 324 324 324 324 324 316 316 253 253 253 253 276 276 276
 276 276 276 42 42 42 42 177 177 177 177 177 106 106 106 368 324 324 324 324
 324 316 316 253 253 253 253 276 276 276 276 276 276 42 42 42 177 177 177 177
 177 177 177 368 368 368 277 277 324 324 324 316 316 253 253 253 253 253 276 276
 276 276 130 130 130 130 177 177 177 177 177 177 177 368 368 368 368 277 277 324
 316 316 331 331 331 253 214 214 214 276 276 130 130 130 130 130 177 177 177 177
 177 177 177 368 368 368 368 277 277 324 316 331 331 331 331 214 214 214 214 214
 392 392 392 392 130 130 75 75 177 177 177 177 344 344 173 368 368 51 51 51
 228 228 331 190 190 214 214 214 214 214 392 392 392 130 130 75 75 75 286 286
 177 102 173 173 173 173 51 51 51 51 258 258 190 190 190 190 214 214 214 214
 57 57 57 57 315 75 75 75 75 286 102 102 102 173 173 173 51 51 51 51
 258 258 258 190 386 386 386 398 398 398 57 57 57 57 57 75 75 75 75 249
 102 102 102 173 173 173 51 51 239 239 258 258 258 386 386 386 386 398 398 398
 57 57 57 57 57 75 75 75 75 249 249 378 378 378 173 178 178 239 239 239
 239 258 258 386 386 386 386 398 398 398 57 57 57 57 57 57 75 75 249 249
 378 378 378 378 178 178 178 239 239 239 239 167 167 167 386 386 386 398 398 303
 303 57 57 57 57 57 75 249 249 378 378 378 378 378 378 178 178 239 239 239
 239 167 167 167 167 386 386 68 303 303 303 395 57 57 57 57 57 249 378 378
 378 378 378 378 378 378 86 239 239 167 167 167 167 167 167 68 68 68 68 303
 395 395 395 395 57 366 366 366 378 378 378 378 378 378 378 365 365 86 167 167
 167 167 167 167 167 68 68 68 68 395 395 395 395 395 395 366 366 366 378 378
 378 378 378 378 378 365 365 110 167 167 167 167 167 167 382 382 68 68 68 395
 395 395 395 395 395 366 366 366 55 55 378 378 378 378 378 365 110 110 110 110
 167 167 167 382 382 382 382 382 395 395 395 395 395 395 395 147 147 147 147 55
 55 55 378 378 110 110 110 110 110 110 110 167 382 382 382 382 382 382 395 395
 395 395 395 395 395 14 147 147 147 147 55 41 41 110 110 110 110 110 110 110
 110 405 405 382 382 382 382 382 395 395 395 395 395 395 14 14 14 147 147 147
 41 41 41 41 110 110 110 110 110 110 110 405 405 382 382 382 382 382 395 395
 395 395 395 14 14 14 14 14 147 41 41 41 41 41 221 221 110 110 110 110
 110 405 405 382 382 382 382 382 395 395 375 395 14 14 14 14 14 14 14 41
 41 41 41 221 221 221 221 110 110 118 118 118 209 122 122 122 122 122 19 19
 19 19 14 14 14 14 14 14 14 41 41 41 41 103 221 221 221 110 118 118
 118 118 209 122 122 122 122 122 19 19 19 19 14 14 14 14 14 14 14 41
 41 41 103 103 103 103 397 118 118 118 118 118 209 122 122 122 122 122 19 19
 19 19 373 373 373 373 373 373 373 73 41 41 350 350 350 397 397 118 118 118
 118 43 43 209 122 122 122 4 19 19 232 232 232 373 373 373 373 373 373 373
 41 350 350 350 350 397 397 397 118 188 43 43 43 43 271 271 4 4 4 208
 232 232 232 373 373 373 373 373 373 345 300 350 350 350 350 397 397 290 290 43
 43 43 43 43 271 271 271 4 4 208 232 232 232 232 373 143 143 373 345 345
 345 116 350 350 123 397 290 290 290 43 43 43 43 43 271 271 271 271 4 232
 232 232 232 143 143 143 143 143 345 345 345 345 345 123 123 123 123 290 290 43
 43 43 43 43 271 271 271 271 276 232 276 232 232 143 143 143 143 143 345 345
 345 345 106 123 123 123 123 324 324 324 43 43 43 43 271 271 271 276 276 276
 276 276 276 143 143 143 143 143 345 345 345 345 106 106 123 123 123 324 324 324
 324 324 253 253 253 253 253 276 276 276 276 276 276 42 42 42 42 177 177 177
 177 177 106 106 123 123 123 324 324 324 324 324 253 253 253 253 253 276 276 276
 276 276 278 278 42 42 42 177 177 177 177 177 106 106 123 123 123 324 324 324
 324 324 253 253 253 253 253 253 276 276 276 276 278 278 278 42 177 177 177 177
 177 177 344 368 368 368 277 277 324 324 324 316 316 253 253 253 253 253 276 276
 392 392 278 278 278 278 177 177 177 177 177 177 344 344 368 368 277 277 277 324
 324 316 331 331 253 253 214 214 214 214 392 392 392 278 278 278 177 177 177 177
 177 177 344 344 368 368 277 277 277 228 228 228 331 331 331 214 214 214 214 214
 392 392 392 392 392 392 286 286 286 286 177 344 344 344 173 173 51 51 51 51
 228 228 228 190 207 207 214 214 214 214 392 392 392 392 315 315 286 286 286 286
 286 173 173 173 173 173 51 51 51 51 258 258 258 190 190 207 214 214 214 214
 392 392 392 315 315 315 75 286 286 286 286 102 173 173 173 173 51 51 51 51
 258 258 258 190 386 386 386 398 398 362 362 57 57 57 315 315 315 249 249 249
 249 249 173 173 173 173 51 51 51 258 258 258 258 258 386 386 386 398 398 362
 57 57 57 57 315 315 315 249 249 249 249 249 378 173 173 173 51 51 239 239
 258 258 258 258 386 386 386 398 362 362 57 57 57 57 57 57 249 249 249 249
 249 378 378 378 378 178 86 239 239 239 239 258 167 167 386 386 386 398 362 362
 187 57 57 57 57 57 57 249 249 249 378 378 378 378 378 378 86 86 239 239
 239 167 167 167 167 386 386 68 303 303 395 395 57 57 57 57 249 249 249 378
 378 378 378 378 378 378 86 86 86 239 167 167 167 167 167 115 68 68 68 395
 395 395 395 395 57 366 366 152 378 378 378 378 378 378 378 378 86 86 86 167
 167 167 167 167 167 382 68 68 395 395 395 395 395 395 395 366 366 152 152 378
 378 378 378 378 378 365 110 86 110 167 211 211 211 167 382 382 382 382 395 395
 395 395 395 395 395 366 366 152 152 378 378 378 378 378 210 110 110 110 110 110
 211 211 211 382 382 382 382 382 395 395 395 395 395 395 395 395 147 147 147 55
 55 378 378 378 110 110 110 110 110 110 211 211 211 382 382 382 382 382 395 395
 395 395 395 395 395 14 147 147 147 147 346 346 346 346 110 110 110 110 110 110
 211 211 211 382 382 382 382 382 395 395 395 395 395 395 14 14 14 14 147 147
 346 346 346 346 110 110 110 110 110 110 110 211 211 382 382 382 382 382 395 395
 395 395 395 14 14 14 14 14 14 41 346 346 346 103 221 221 110 110 110 110
 110 405 209 382 382 382 382 382 395 395 395 395 14 14 14 14 14 14 14 41