# vtk DataFile Version 2.0
Data set from IO Version 6.4.197.9a0dee2
ASCII

DATASET RECTILINEAR_GRID
DIMENSIONS 31 31 31
X_COORDINATES 31 float
-5.500000 5.500000 16.500000 27.500000 38.500000 49.500000 60.500000 71.500000 82.500000 93.500000 104.500000 115.500000 126.500000 137.500000 148.500000 159.500000 170.500000 181.500000 192.500000 203.500000 214.500000 
225.500000 236.500000 247.500000 258.500000 269.500000 280.500000 291.500000 302.500000 313.500000 324.500000 
Y_COORDINATES 31 float
-5.500000 5.500000 16.500000 27.500000 38.500000 49.500000 60.500000 71.500000 82.500000 93.500000 104.500000 115.500000 126.500000 137.500000 148.500000 159.500000 170.500000 181.500000 192.500000 203.500000 214.500000 
225.500000 236.500000 247.500000 258.500000 269.500000 280.500000 291.500000 302.500000 313.500000 324.500000 
Z_COORDINATES 31 float
-5.500000 5.500000 16.500000 27.500000 38.500000 49.500000 60.500000 71.500000 82.500000 93.500000 104.500000 115.500000 126.500000 137.500000 148.500000 159.500000 170.500000 181.500000 192.500000 203.500000 214.500000 
225.500000 236.500000 247.500000 258.500000 269.500000 280.500000 291.500000 302.500000 313.500000 324.500000 
CELL_DATA 27000
SCALARS FeatureIds int 1
LOOKUP_TABLE default
 10 10 329 329 329 267 267 267 267 23 23 23 23 244 244 244 199 199 199 199
 199 199 366 366 366 366 158 10 10 10 10 10 10 267 267 267 267 267 267 23
 23 70 70 70 244 244 199 199 199 199 199 199 366 366 366 366 158 10 10 10
 10 10 10 10 267 267 267 79 79 70 70 70 70 70 161 199 199 199 199 199
 199 199 366 366 366 366 10 10 10 10 10 10 10 10 267 267 79 79 79 79
 70 70 70 70 70 199 199 199 199 199 199 199 366 366 366 211 10 10 10 10
 10 201 201 201 201 35 35 79 79 281 281 70 70 228 228 31 31 31 31 199
 199 278 278 366 366 211 10 10 10 10 201 201 201 201 201 35 35 35 35 281
 281 281 228 228 228 31 31 31 31 31 278 278 278 278 278 211 302 302 302 302
 302 201 201 201 115 35 35 35 35 281 1 1 1 228 228 228 31 31 31 31
 278 278 278 47 47 47 302 302 302 302 302 40 40 115 115 115 241 241 241 1
 1 1 1 228 93 93 93 31 31 31 47 47 47 47 47 47 355 302 302 302
 40 40 40 115 115 115 241 241 241 1 1 1 1 93 93 93 93 93 93 47
 47 47 47 47 47 47 355 355 355 40 40 40 40 115 115 115 241 241 241 241
 1 1 1 93 93 93 93 93 93 319 319 47 47 47 47 47 355 355 102 40
 40 40 40 115 115 115 241 241 241 241 1 1 1 258 258 258 258 258 258 319
 319 319 47 47 47 142 142 102 102 102 102 40 40 115 115 115 241 241 241 241
 1 18 18 258 258 258 258 258 258 319 319 319 319 47 142 142 142 102 102 102
 102 102 40 115 190 190 190 241 241 291 291 101 101 101 258 258 258 258 258 319
 319 319 319 319 142 142 142 102 102 102 102 102 287 190 190 190 190 291 291 291
 291 291 101 101 101 258 258 258 335 319 319 319 319 319 142 142 4 4 102 102
 287 287 287 287 190 190 190 291 291 291 291 291 101 101 101 232 232 232 335 30
 30 30 30 30 4 4 4 4 4 4 287 287 287 287 190 190 190 291 291 291
 291 291 101 101 232 232 232 232 335 30 30 30 30 34 34 34 4 4 4 4
 287 287 287 287 190 382 291 291 291 291 138 138 138 138 232 232 232 232 216 30
 30 30 30 34 34 34 34 4 4 4 287 287 287 287 382 382 291 291 291 138
 138 138 138 184 184 184 184 184 216 365 178 178 34 34 34 34 34 247 4 4
 372 372 372 372 372 382 88 88 88 88 88 138 297 297 297 184 184 184 365 365
 178 178 178 34 34 34 34 247 247 247 372 372 372 372 340 340 88 88 88 88
 88 88 297 297 297 297 297 365 365 365 178 178 178 34 34 34 34 247 374 374
 372 372 372 372 340 340 340 88 88 88 88 88 297 297 297 297 297 365 365 365
 365 178 178 197 197 197 197 197 374 374 374 374 372 340 340 340 340 88 88 88
 88 297 297 297 297 297 297 365 365 365 365 365 365 197 197 197 197 197 374 374
 374 374 374 340 340 340 340 144 88 88 88 297 297 297 297 297 297 365 365 365
 365 365 365 197 197 197 197 298 298 374 374 374 141 141 340 144 144 144 144 144
 297 297 297 297 297 297 297 365 365 365 365 365 37 37 37 298 298 298 298 298
 298 298 141 141 141 144 144 144 144 144 144 297 297 297 297 297 117 117 117 365
 173 173 37 37 37 298 298 298 298 298 298 298 141 141 141 144 144 144 144 144
 144 266 266 266 297 117 117 117 117 365 173 173 37 37 37 298 298 298 298 298
 298 298 141 141 144 144 144 144 144 144 266 266 266 266 266 117 117 117 117 117
 248 248 37 37 37 298 298 298 298 298 298 298 141 141 144 144 144 144 144 266
 266 266 266 266 266 117 117 117 117 248 248 248 248 37 37 298 298 298 298 298
 347 329 329 329 329 267 267 144 144 266 266 266 266 266 266 244 244 199 199 199
 199 248 248 37 37 298 298 298 298 298 347 329 329 329 329 267 267 267 267 266
 266 266 266 266 244 244 244 199 199 199 199 199 199 158 158 158 298 298 298 347
 10 10 10 267 267 267 267 267 267 23 23 23 23 244 244 244 244 199 199 199
 199 199 199 366 158 158 158 158 347 347 10 10 10 267 267 267 267 267 267 23
 23 23 23 161 244 244 199 199 199 199 199 199 199 366 366 158 158 10 10 10
 10 10 10 267 267 267 267 267 267 23 23 70 70 161 161 161 199 199 199 199
 199 199 199 366 366 211 211 10 10 10 10 10 10 10 267 267 267 79 79 281
 281 70 70 161 161 161 199 199 199 199 199 199 199 366 211 211 211 10 10 10
 10 10 10 10 35 35 35 35 35 281 281 281 281 161 161 31 31 31 31 199
 199 199 199 211 211 211 211 10 10 10 302 201 201 201 35 35 35 35 35 281
 281 281 281 228 228 31 31 31 31 31 278 278 278 211 211 211 211 302 302 302
 302 302 201 201 35 35 35 35 35 281 281 281 1 1 93 93 31 31 31 31
 31 278 47 47 47 47 302 302 302 302 302 40 40 115 115 241 241 241 241 1
 1 1 1 93 93 93 93 31 31 31 47 47 47 47 47 47 355 355 302 302
 40 40 40 115 115 241 241 241 241 1 1 1 1 93 93 93 93 93 93 31
 47 47 47 47 47 47 355 355 355 302 40 40 40 115 115 241 241 241 241 241
 1 1 1 93 93 93 93 93 74 81 319 47 47 47 47 47 355 355 355 102
 102 40 40 115 115 241 241 241 241 241 1 1 1 258 258 258 258 74 74 81
 81 47 47 47 47 47 355 355 102 102 102 40 40 115 115 241 241 241 241 241
 227 227 101 101 258 258 258 74 335 81 81 81 47 47 47 142 142 102 102 102
 102 102 40 190 190 190 190 241 241 227 227 227 101 101 101 258 258 335 335 81
 81 81 336 336 336 142 142 102 102 102 102 287 287 190 190 190 190 291 291 291
 291 227 101 101 101 258 258 335 335 335 81 336 336 336 336 142 4 102 102 102
 287 287 287 287 190 190 190 291 291 291 291 291 101 101 101 184 335 335 335 335
 30 30 336 336 336 336 4 4 4 4 287 287 287 287 190 190 190 291 291 291
 291 291 101 101 184 184 184 184 335 216 30 30 30 34 34 34 34 4 4 287
 287 287 287 287 382 382 291 291 291 291 291 291 138 184 184 184 184 184 216 216
 216 30 34 34 34 34 34 247 247 4 287 287 287 287 382 382 382 291 291 291
 291 138 138 184 184 184 184 184 216 216 216 178 34 34 34 34 34 247 247 247
 372 372 372 372 382 382 382 88 88 88 88 297 297 297 184 184 184 184 216 216
 216 178 34 34 34 34 34 247 247 247 372 372 372 372 340 340 340 88 88 88
 88 297 297 297 297 297 184 365 365 365 365 178 178 34 34 34 34 374 374 374
 372 372 372 340 340 340 340 88 88 88 88 297 297 297 297 297 297 365 365 365
 365 367 367 197 197 197 197 374 374 374 374 374 372 340 340 340 340 340 88 88
 88 297 297 297 297 297 297 365 365 365 365 367 367 197 197 197 197 374 374 374
 374 374 374 340 340 340 340 144 144 88 297 297 297 297 297 297 297 365 365 365
 365 367 367 197 197 197 197 374 374 374 374 374 374 141 144 144 144 144 144 144
 297 297 297 297 297 297 297 365 365 365 365 367 37 37 37 298 298 298 298 374
 374 374 141 141 144 144 144 144 144 144 144 297 297 297 297 297 296 296 296 365
 173 173 37 37 37 37 298 298 298 298 298 298 141 141 144 144 144 144 144 144
 144 266 266 297 297 296 296 296 296 296 173 173 37 37 37 37 298 298 298 298
 298 298 141 141 144 144 144 144 144 144 266 266 266 266 266 296 296 296 296 248
 248 248 37 37 37 37 298 298 298 298 347 347 267 267 267 267 144 144 144 144
 266 266 266 266 244 244 296 296 199 248 248 248 248 37 37 37 298 298 298 298
 347 347 267 267 267 267 267 267 144 144 266 266 266 266 244 244 244 199 199 199
 248 248 248 158 158 158 158 298 347 347 347 347 267 267 267 267 267 267 267 23
 23 23 266 244 244 244 244 199 199 199 199 199 199 158 158 158 158 158 347 347
 347 347 267 267 267 267 267 267 267 23 23 23 23 23 244 244 244 244 199 199
 199 199 199 158 158 158 158 158 347 347 10 10 267 267 267 267 267 267 267 23
 23 23 23 161 161 244 244 199 199 199 199 199 199 158 158 158 158 158 10 10
 10 234 234 267 267 267 267 267 267 23 23 23 161 161 161 161 199 199 199 199
 199 199 199 211 211 211 211 211 10 10 10 234 234 234 267 267 267 267 281 281
 281 281 161 161 161 161 199 199 199 199 199 199 199 211 211 211 211 211 10 10
 10 234 234 234 35 35 35 35 35 281 281 281 281 161 161 31 31 31 31 199
 199 199 199 211 211 211 211 211 302 302 302 302 201 201 35 35 35 35 35 281
 281 281 281 161 161 31 31 31 31 31 199 199 211 211 211 211 211 302 302 302
 302 302 302 302 35 35 35 35 35 281 281 281 281 93 93 93 31 31 31 31
 209 47 47 47 211 211 211 302 302 302 302 40 40 40 115 241 241 35 35 281
 1 1 1 93 93 93 93 31 31 209 209 47 47 47 47 355 355 355 302 302
 40 40 40 40 115 241 241 241 241 241 1 1 1 93 93 93 93 93 74 74
 47 47 47 47 47 355 355 355 355 355 40 40 40 40 115 241 241 241 241 241
 1 1 1 93 93 93 93 74 74 74 74 47 47 47 47 47 355 355 355 102
 102 40 40 40 115 241 241 241 241 241 241 227 227 93 93 93 74 74 74 81
 81 47 47 47 47 47 355 355 102 102 102 102 40 40 190 241 241 241 241 241
 227 227 227 101 258 74 74 74 74 81 81 81 47 47 47 47 355 102 102 102
 102 102 40 190 190 190 190 241 241 227 227 227 227 101 101 74 335 335 335 81
 81 81 336 336 336 336 336 102 102 102 102 102 287 190 190 190 190 291 291 291
 227 227 227 101 101 335 335 335 335 335 81 336 336 336 336 336 336 102 102 102
 287 287 287 287 190 190 190 291 291 291 291 227 227 101 101 184 335 335 335 335
 81 336 336 336 336 336 336 56 56 56 287 287 287 287 190 382 190 291 291 291
 291 291 227 184 184 184 184 335 335 216 216 216 3 3 3 34 34 56 56 56
 287 287 287 287 382 382 382 291 291 291 291 291 227 184 184 184 184 184 216 216
 216 216 34 34 34 34 34 136 136 56 287 287 287 382 382 382 382 291 291 291
 291 291 184 184 184 184 184 184 216 216 216 216 34 34 34 34 136 136 136 136
 372 372 372 382 382 382 382 382 88 88 88 297 297 184 184 184 184 184 216 216
 216 216 34 34 34 34 136 136 136 136 372 372 372 372 382 382 382 88 88 88
 88 297 297 297 297 184 184 184 216 216 367 367 367 83 34 34 105 105 374 374
 374 372 372 372 340 340 340 88 88 88 297 297 297 297 297 297 297 365 365 367
 367 367 367 83 83 83 374 374 374 374 374 374 374 340 340 340 340 340 88 88
 297 297 297 297 297 297 297 365 365 367 367 367 367 83 83 197 374 374 374 374
 374 374 374 374 340 340 340 144 144 88 297 297 297 297 297 297 297 365 365 367
 367 367 367 367 197 197 25 25 374 374 374 374 374 374 144 144 144 144 144 144
 297 297 297 297 297 297 297 296 296 367 367 367 37 37 37 37 25 25 25 374
 374 374 163 163 144 144 144 144 144 144 144 297 297 297 297 297 296 296 296 296
 173 37 37 37 37 37 25 25 25 374 374 374 163 163 163 144 144 144 144 144
 144 266 297 297 297 296 296 296 296 296 173 173 37 37 37 37 298 298 298 298
 347 163 163 163 163 144 144 144 144 144 144 266 266 266 296 296 296 296 296 296
 248 248 37 37 37 37 298 298 298 298 347 347 267 267 267 267 267 144 144 144
 144 275 266 266 244 296 296 296 296 248 248 248 248 37 37 158 158 298 347 347
 347 347 267 267 267 267 267 267 267 144 275 275 275 244 244 244 244 244 199 199
 199 248 248 158 158 158 158 158 347 347 347 347 267 267 267 267 267 267 267 23
 23 23 23 244 244 244 244 244 199 199 199 199 199 158 158 158 158 158 347 347
 347 347 267 267 267 267 267 267 267 23 23 23 275 275 244 244 244 244 199 199
 199 199 199 158 158 158 158 158 347 347 347 234 267 267 267 267 267 267 267 23
 23 23 161 161 161 244 244 244 199 199 199 199 199 211 211 211 211 211 347 347
 234 234 234 267 267 267 267 267 267 23 23 23 161 161 161 161 199 199 199 199
 199 199 199 211 211 211 211 211 211 10 234 234 234 234 267 267 267 267 35 281
 281 161 161 161 161 161 161 199 199 199 199 199 211 211 211 211 211 211 211 10
 234 234 234 234 362 35 35 35 35 281 281 281 161 161 161 161 31 31 209 209
 209 209 211 211 211 211 211 211 211 302 302 234 234 362 362 35 35 35 35 281
 281 281 281 161 161 31 31 31 209 209 209 209 211 211 211 211 211 211 302 302
 302 302 302 362 362 35 35 35 35 281 281 281 281 108 93 93 31 31 209 209
 209 209 268 268 268 211 211 302 302 302 302 40 40 362 362 362 241 35 35 281
 1 1 1 93 93 93 93 209 209 209 209 209 47 268 268 355 355 355 355 302
 40 40 40 40 362 241 241 241 241 241 1 1 1 93 93 93 93 74 74 74
 209 47 47 47 47 355 355 355 355 355 148 148 40 40 362 241 241 241 241 241
 125 1 1 157 157 157 74 74 74 74 74 47 47 47 47 355 355 355 355 148
 148 148 40 40 189 241 241 241 241 241 227 227 227 364 157 74 74 74 74 74
 81 81 47 47 47 47 355 355 148 148 148 148 40 189 189 189 241 241 241 227
 227 227 227 227 74 74 74 74 74 81 81 81 336 336 336 60 60 148 148 148
 148 148 148 189 189 189 189 189 227 227 227 227 227 227 101 74 335 335 335 335
 81 81 336 336 336 336 336 148 148 148 148 148 237 237 189 189 189 189 291 227
 227 227 227 227 101 335 335 335 335 335 81 336 336 336 336 336 336 56 56 148
 56 56 237 237 237 189 189 291 291 291 227 227 227 227 184 184 335 335 335 335
 81 336 336 336 336 336 336 56 56 56 56 56 237 237 237 382 382 291 291 291
 291 227 227 184 184 184 184 335 335 216 216 216 3 3 3 34 56 56 56 56
 56 56 237 237 382 382 382 382 291 291 291 291 184 184 184 184 184 184 216 216
 216 216 3 3 3 34 136 136 136 56 56 96 237 382 382 382 382 382 291 291
 291 184 184 184 184 184 184 184 216 216 216 216 83 83 34 34 136 136 136 136
 96 96 96 382 382 382 382 382 88 88 297 297 184 184 184 184 184 184 216 216
 216 216 83 83 83 83 136 136 136 136 374 96 96 382 382 382 382 382 88 88
 297 297 297 297 184 184 184 184 216 216 367 367 83 83 83 83 105 105 105 374
 374 374 374 257 257 257 257 257 327 327 297 297 297 297 297 297 297 184 365 367
 367 367 367 83 83 83 105 105 374 374 374 374 374 257 257 257 257 257 327 327
 297 297 297 297 297 297 297 297 365 367 367 367 367 83 83 83 374 374 374 374
 374 374 374 257 257 257 257 144 144 327 297 297 297 297 297 297 297 297 365 367
 367 367 367 83 83 25 25 25 374 374 374 374 374 163 163 144 144 144 144 144
 297 297 297 297 297 297 297 296 296 367 367 367 367 37 37 25 25 25 25 374
 374 374 163 163 163 163 144 144 144 144 144 297 297 297 297 296 296 296 296 296
 367 37 37 37 37 37 25 25 25 374 374 374 163 163 163 163 144 144 144 144
 144 275 297 297 296 296 296 296 296 296 173 37 37 37 37 37 25 25 25 374
 347 163 163 163 163 163 144 144 144 144 144 275 275 275 296 296 296 296 296 296
 248 37 37 37 37 277 277 277 298 347 347 347 163 163 163 267 267 267 144 144
 275 275 275 275 317 317 296 296 296 296 248 248 37 37 158 158 158 158 347 347
 347 347 267 267 267 267 267 267 267 275 275 275 275 275 317 244 244 244 199 199
 199 9 9 158 158 158 158 158 347 347 347 347 267 267 267 267 267 267 267 275
 275 275 275 275 244 244 244 244 199 199 199 9 9 158 158 158 158 158 347 347
 347 347 267 267 267 267 267 267 267 275 275 275 275 275 244 244 244 174 174 199
 9 9 9 158 158 158 158 158 347 347 347 234 267 267 267 267 267 267 267 275
 275 275 275 161 161 244 174 174 174 199 199 199 199 211 211 211 211 211 347 347
 234 234 234 267 267 267 267 267 267 275 275 275 161 161 161 161 174 174 174 199
 199 199 211 211 211 211 211 211 211 10 234 234 234 234 267 267 267 267 35 281
 281 161 161 161 161 161 174 174 209 209 209 209 211 211 211 211 211 211 211 10
 234 234 234 234 362 362 299 35 35 281 281 281 161 161 161 161 174 209 209 209
 209 209 211 211 211 211 211 211 211 302 302 234 234 362 362 362 362 35 35 281
 281 281 108 108 108 108 108 209 209 209 209 209 209 211 211 211 211 211 211 302
 302 302 362 362 362 362 362 362 35 281 281 281 108 108 108 108 108 209 209 209
 209 209 268 268 268 211 211 259 259 302 302 116 362 362 362 362 362 362 35 281
 125 108 108 108 108 108 108 209 209 209 209 209 268 268 268 268 259 259 259 302
 116 116 116 362 362 362 362 362 125 125 125 125 108 108 157 157 157 74 74 209
 262 262 268 268 268 355 355 355 355 148 116 116 116 116 362 362 362 125 125 125
 125 364 364 157 157 157 157 74 74 74 262 262 262 268 47 355 355 355 148 148
 148 116 116 116 189 189 241 125 125 125 125 364 364 364 157 157 74 74 74 74
 262 262 262 47 60 60 60 148 148 148 148 148 116 189 189 189 189 125 125 125
 227 227 364 364 364 74 74 74 74 74 81 81 336 336 60 60 60 148 148 148
 148 148 148 189 189 189 189 189 125 227 227 227 227 227 227 74 335 335 335 335
 349 349 336 336 336 60 60 148 148 148 148 148 237 237 189 189 189 189 189 227
 227 227 227 227 227 335 335 335 335 335 349 349 336 336 336 336 60 56 56 148
 56 56 237 237 237 189 189 189 223 223 227 227 227 227 184 184 335 335 335 335
 349 349 336 336 336 336 56 56 56 56 56 56 237 237 237 237 189 291 223 223
 223 227 227 184 184 184 184 335 335 216 216 216 3 3 3 336 56 56 56 56
 56 56 237 237 237 382 382 382 223 223 223 227 184 184 184 184 184 184 216 216
 216 216 83 3 3 34 136 136 56 56 56 56 237 237 382 382 382 382 223 223
 223 184 184 184 184 184 184 184 216 216 216 83 83 83 83 83 136 136 136 56
 96 96 96 382 382 382 382 382 223 223 223 184 184 184 184 184 184 184 216 216
 216 83 83 83 83 83 136 136 136 56 96 96 96 257 257 257 257 257 327 327
 327 297 297 184 184 184 184 184 216 216 83 83 83 83 83 83 105 105 374 374
 374 96 96 257 257 257 257 257 327 327 327 297 297 297 297 297 24 24 24 367
 367 83 83 83 83 83 83 374 374 374 374 374 374 257 257 257 257 257 327 327
 327 297 297 269 269 297 24 24 24 367 367 367 83 83 83 83 374 374 374 374
 374 374 374 257 257 257 257 257 327 327 327 297 297 297 297 297 24 24 24 367
 367 367 367 83 83 83 25 25 374 374 374 374 374 163 163 257 257 144 144 144
 327 297 297 297 297 297 24 296 296 296 367 367 367 37 83 25 25 25 25 374
 374 374 163 163 163 163 163 144 144 144 144 297 297 297 297 296 296 296 296 296
 296 37 37 37 37 25 25 25 25 374 374 163 163 163 163 163 163 144 144 144
 144 275 275 296 296 296 296 296 296 296 296 37 37 37 277 277 277 25 25 374
 347 163 163 163 163 163 163 144 144 144 275 275 275 275 296 296 296 296 296 296
 296 37 37 277 277 277 277 277 277 347 347 163 163 163 163 163 267 267 144 275
 275 275 275 275 317 317 296 296 296 296 9 9 277 277 277 277 277 277 347 347
 347 347 163 267 267 267 267 267 267 275 275 275 275 275 317 317 244 244 174 199
 9 9 9 158 158 158 158 158 347 347 347 347 267 267 267 267 267 267 267 275
 275 275 275 275 244 244 244 244 174 199 9 9 9 158 158 158 158 158 347 347
 221 221 267 267 267 267 267 267 267 275 275 275 275 275 244 244 174 174 174 174
 9 9 9 158 158 158 158 158 347 221 221 221 267 267 267 267 267 267 275 275
 275 275 275 275 161 174 174 174 174 174 199 199 9 211 211 211 211 211 211 347
 234 234 234 299 299 299 299 299 357 275 275 275 275 161 161 174 174 174 174 174
 199 199 211 211 211 211 211 211 211 211 234 234 234 299 299 299 299 299 357 357
 357 275 161 161 161 161 174 174 209 209 209 209 211 211 211 211 211 211 211 211
 234 234 234 299 299 299 299 299 357 357 357 108 108 108 108 108 174 209 209 209
 209 209 181 211 211 211 211 211 211 211 289 234 362 362 362 362 362 362 362 357
 357 108 108 108 108 108 108 209 209 209 209 209 181 268 211 211 211 211 211 211
 289 362 362 362 362 362 362 362 362 92 92 108 108 108 108 108 108 209 209 209
 209 209 268 268 268 211 259 259 259 259 116 116 362 362 362 362 362 362 362 125
 125 108 108 108 108 108 108 209 209 209 209 209 268 268 268 268 259 259 259 259
 116 116 116 362 362 362 362 362 125 125 125 125 108 108 157 157 157 74 209 209
 262 262 268 268 268 268 259 259 259 148 116 116 116 362 362 362 362 125 125 125
 125 364 364 364 157 157 157 74 74 74 262 262 262 268 268 60 60 148 148 148
 148 116 116 116 362 362 125 125 125 125 125 364 364 364 157 157 157 74 74 74
 262 262 262 60 60 60 60 148 148 148 148 148 116 189 189 189 189 125 125 125
 125 364 364 364 364 157 74 74 74 74 262 262 336 60 60 60 60 148 148 148
 148 148 148 189 189 189 189 189 125 125 227 364 364 364 21 21 335 335 335 349
 349 349 349 336 60 60 60 148 148 148 148 148 237 237 189 189 189 189 125 227
 227 227 21 21 21 21 335 335 335 349 349 349 349 336 336 60 60 56 148 148
 56 56 237 237 237 189 189 189 223 223 223 227 21 21 21 21 335 335 335 349
 349 349 349 336 336 336 56 56 56 56 56 56 237 237 237 237 189 189 223 223
 223 227 21 21 184 184 184 335 335 216 216 349 3 3 3 56 56 56 56 56
 56 56 237 237 237 237 382 223 223 223 223 223 21 184 184 184 184 184 216 216
 216 83 83 83 83 83 56 56 56 56 56 56 237 237 237 382 382 382 223 223
 223 223 184 184 184 184 184 184 216 216 216 83 83 83 83 83 245 245 56 56
 96 96 96 96 139 139 139 139 139 223 223 184 184 184 184 184 184 184 216 216
 83 83 83 83 83 83 83 245 245 245 96 96 96 96 139 257 257 257 327 327
 327 327 269 269 269 184 184 24 216 216 83 83 83 83 83 83 83 374 374 374
 96 96 96 257 257 257 257 257 327 327 327 327 269 269 269 269 24 24 24 24
 83 83 83 83 83 83 83 374 374 374 374 374 96 257 257 257 257 257 327 327
 327 327 269 269 269 269 24 24 24 24 83 83 83 83 83 83 83 374 374 374
 374 374 374 257 257 257 257 257 327 327 327 327 269 269 269 269 24 24 24 24
 45 45 45 45 45 45 25 374 374 374 374 374 374 257 257 257 257 257 327 327
 327 327 269 269 269 269 24 24 24 330 45 45 45 45 45 45 202 202 202 374
 374 374 163 163 163 163 163 144 144 144 195 195 195 153 153 153 296 296 296 296
 330 45 45 45 45 45 202 202 202 374 374 163 163 163 163 163 163 360 144 144
 195 195 195 153 153 296 296 296 296 296 296 373 373 45 277 277 277 277 277 374
 221 163 163 163 163 163 163 360 360 195 195 195 195 195 205 205 296 296 296 296
 373 373 373 373 277 277 277 277 277 221 221 221 163 163 163 163 267 360 360 275
 275 275 275 275 317 317 205 296 296 296 9 373 373 373 277 277 277 277 221 221
 221 221 163 267 267 267 267 267 267 275 275 275 275 275 317 317 317 317 174 9
 9 9 9 277 277 277 277 277 221 221 221 221 267 267 267 267 267 267 275 275
 275 275 275 275 275 244 244 174 174 9 9 9 9 9 158 158 158 158 347 221
 221 221 164 267 267 267 267 267 77 275 275 275 275 275 275 244 174 174 174 174
 9 9 9 187 187 187 121 121 121 221 164 164 164 267 299 299 299 77 77 275
 275 275 275 275 275 174 174 174 174 129 129 9 9 187 187 187 121 121 121 221
 164 164 164 299 299 299 299 299 357 357 357 275 275 161 161 174 174 174 174 129
 209 181 187 187 187 187 211 121 121 121 164 164 164 299 299 299 299 299 357 357
 357 275 275 161 161 129 129 174 209 209 209 181 181 211 211 211 211 211 211 164
 164 164 299 299 299 299 299 299 357 357 357 357 108 108 108 108 108 209 209 209
 181 181 181 211 211 211 211 211 211 211 289 289 362 362 362 362 362 362 357 357
 357 108 108 108 108 108 108 209 209 209 209 181 181 181 211 211 211 211 259 259
 289 289 362 362 362 362 362 362 92 92 92 108 108 108 108 108 108 209 209 209
 209 181 181 268 268 211 259 259 259 259 289 289 289 362 362 362 362 362 92 92
 92 108 108 108 108 108 108 209 209 209 209 181 268 268 268 268 259 259 259 259
 289 289 289 362 362 362 362 362 125 125 125 125 108 108 108 108 157 209 209 209
 262 262 268 268 268 268 259 259 148 148 116 116 116 362 362 362 362 125 125 125
 125 364 364 364 157 157 157 157 74 74 262 262 262 268 268 60 259 148 148 148
 148 116 116 116 362 362 125 125 125 125 125 364 364 364 157 157 157 74 74 74
 262 262 262 268 60 60 60 148 148 148 148 148 116 189 189 189 189 125 125 125
 125 364 364 364 364 157 157 74 74 85 85 85 85 60 60 60 60 148 148 148
 148 148 148 189 189 189 189 189 125 125 125 364 364 21 21 21 335 335 335 349
 349 349 349 336 60 60 60 148 148 148 148 148 237 237 189 189 189 189 125 125
 21 21 21 21 21 21 21 335 335 349 349 349 349 336 336 60 60 148 148 148
 56 56 237 237 237 189 189 189 223 223 223 21 21 21 21 21 112 112 112 112
 349 349 349 336 336 336 56 56 56 56 56 56 237 237 237 237 189 189 223 223
 223 21 21 21 21 21 112 112 112 112 349 349 349 83 83 245 245 56 56 56
 56 56 237 237 237 237 189 223 223 223 223 21 21 184 184 184 112 112 112 112
 328 83 83 83 83 245 245 245 56 56 56 56 237 237 237 139 139 139 223 223
 223 22 22 184 184 184 184 112 112 216 83 83 83 83 83 245 245 245 245 56
 96 96 96 139 139 139 139 139 139 223 223 269 269 184 184 184 236 236 236 236
 83 83 83 83 83 83 245 245 245 245 96 96 96 139 139 139 139 139 139 327
 327 269 269 269 269 184 236 236 236 236 83 83 83 83 83 83 83 245 245 245
 96 96 96 139 139 257 257 257 327 327 327 61 269 269 269 269 236 236 236 236
 83 83 83 83 83 83 83 374 374 374 374 374 96 257 257 257 257 257 327 327
 327 61 269 269 269 269 24 24 24 330 83 83 83 83 83 83 202 202 374 374
 374 374 257 257 257 257 257 257 327 327 327 61 269 269 269 269 24 24 24 330
 330 45 45 45 45 45 202 202 202 374 374 374 68 257 257 257 257 257 327 327
 327 61 269 269 269 269 24 24 330 330 330 45 45 45 45 45 202 202 202 202
 55 68 68 68 68 163 163 163 360 195 195 195 195 153 153 153 153 330 330 330
 330 45 45 45 45 45 202 202 202 202 68 68 68 68 163 163 163 360 360 195
 195 195 195 153 153 153 153 296 330 330 330 373 373 45 45 277 277 202 202 221
 221 68 68 68 163 163 360 360 360 195 195 195 195 195 205 205 205 205 296 296
 373 373 373 373 277 277 277 277 221 221 221 221 163 163 163 163 360 360 360 195
 195 195 195 195 205 205 205 205 205 205 373 373 373 373 277 277 277 277 221 221
 221 221 221 267 267 267 360 360 360 275 275 275 195 195 205 205 205 205 174 9
 9 9 373 373 277 277 277 277 221 221 221 221 221 267 267 267 267 360 360 275
 275 275 275 275 275 205 244 174 174 9 9 9 9 9 277 277 277 277 221 221
 164 164 164 164 164 267 77 77 77 275 275 275 275 275 129 129 129 129 129 129
 129 9 9 187 187 187 121 121 121 221 164 164 164 164 299 299 77 77 77 357
 275 275 275 275 129 129 129 129 129 129 129 9 187 187 187 187 121 121 121 164
 164 164 164 299 299 299 299 77 357 357 357 275 275 129 129 129 129 129 129 129
 129 129 187 187 187 187 187 121 121 164 164 164 164 299 299 299 299 299 357 357
 357 357 352 108 129 129 129 129 129 129 181 181 181 187 187 187 187 187 121 164
 164 164 164 299 299 299 299 299 357 357 357 357 108 108 108 108 129 129 209 209
 181 181 181 181 187 187 187 187 211 164 289 289 362 362 362 362 362 362 357 357
 357 108 108 108 108 108 108 209 209 209 181 181 181 181 211 211 213 213 213 213
 289 289 289 362 362 362 362 362 92 92 92 108 108 108 108 108 108 209 209 209
 181 181 181 181 268 213 213 213 213 213 289 289 289 362 362 362 362 362 92 92
 92 108 108 108 108 108 108 209 209 209 209 181 181 268 268 213 213 213 213 289
 289 289 289 362 362 362 362 362 92 92 125 125 108 108 108 108 108 108 209 209
 209 262 268 268 268 213 213 213 213 148 351 351 351 351 362 362 362 125 125 125
 125 364 364 364 108 108 157 157 209 85 85 85 85 268 62 60 213 148 148 148
 148 351 351 351 362 362 125 125 125 125 125 364 364 364 364 157 157 74 85 85
 85 85 85 85 60 60 60 148 148 148 148 148 351 351 189 189 53 53 125 125
 125 364 364 364 364 21 157 74 85 85 85 85 85 85 60 60 60 148 148 148
 148 148 148 189 189 189 53 53 53 125 21 21 21 21 21 21 21 51 85 85
 85 85 85 85 85 60 60 148 148 148 148 194 194 237 189 189 189 53 53 21
 21 21 21 21 21 21 21 21 112 85 85 85 85 85 85 60 60 148 148 148
 56 194 194 237 237 189 189 189 223 223 21 21 21 21 21 21 112 112 112 112
 328 328 328 328 328 245 245 56 56 56 56 194 194 237 237 237 189 189 223 223
 223 21 21 21 21 21 112 112 112 112 328 328 328 328 83 245 245 245 56 56
 56 194 194 237 237 237 139 223 223 223 223 21 22 22 22 112 112 112 112 112
 328 328 328 83 83 245 245 245 245 56 56 194 194 237 139 139 139 139 223 223
 223 22 22 22 22 112 112 112 236 236 328 83 83 83 83 245 245 245 245 245
 96 96 96 139 139 139 139 139 139 61 22 22 22 22 22 236 236 236 236 236
 83 83 83 83 83 245 245 245 245 245 96 96 96 139 139 139 139 139 139 61
 61 61 269 269 269 236 236 236 236 236 83 83 83 83 83 83 245 245 245 245
 96 96 96 139 139 139 139 139 61 61 61 61 269 269 269 269 236 236 236 236
 83 83 83 83 83 83 83 245 374 49 49 49 96 139 139 257 257 257 61 61
 61 61 61 269 269 269 236 236 330 330 330 45 45 45 45 45 202 202 202 49
 49 49 68 257 257 257 257 257 61 61 61 61 61 269 269 269 330 330 330 330
 330 45 45 45 45 45 202 202 202 49 55 55 68 68 68 257 257 257 61 61
 61 61 307 269 269 153 330 330 330 330 330 45 45 45 45 45 202 202 202 202
 55 55 68 68 68 68 163 360 360 307 307 307 307 153 153 153 153 330 330 330
 330 45 45 45 45 45 202 202 202 202 55 55 68 68 68 68 360 360 360 195
 195 195 195 153 153 153 153 330 330 330 330 330 45 45 45 45 202 202 202 55
 55 55 68 68 68 360 360 360 360 195 195 195 195 195 205 205 205 205 330 330
 330 373 373 373 373 277 14 14 14 55 221 221 68 68 68 360 360 360 360 195
 195 195 195 195 205 205 205 205 205 330 373 373 373 373 373 277 14 14 14 221
 221 221 221 267 267 360 360 360 360 195 195 195 195 195 205 205 205 129 129 129
 9 373 373 373 373 277 14 14 221 221 221 221 164 164 267 360 360 360 360 275
 275 275 275 275 205 205 129 129 129 129 9 9 9 373 277 277 14 14 221 221
 164 164 164 164 164 198 198 198 322 322 322 275 275 275 129 129 129 129 129 129
 129 9 187 187 187 187 121 121 121 164 164 164 164 164 164 299 198 198 198 198
 275 275 352 129 129 129 129 129 129 129 129 129 187 187 187 187 187 121 121 164
 164 164 164 164 299 299 299 198 198 357 357 352 352 352 129 129 129 129 129 129
 129 129 187 187 187 187 187 121 121 164 164 164 164 299 299 299 299 299 357 357
 357 352 352 352 129 129 129 129 129 129 129 181 181 187 187 187 187 187 121 164
 164 164 164 299 299 299 299 299 357 357 357 352 352 108 108 129 129 129 129 129
 181 181 181 181 187 187 187 187 311 164 164 289 362 362 362 362 362 362 357 357
 357 352 108 108 108 108 108 209 209 181 181 181 181 181 187 311 311 311 311 311
 289 289 289 362 362 362 362 362 92 92 92 108 108 108 108 108 108 108 75 75
 181 181 181 181 181 213 213 213 213 213 351 289 289 362 362 362 362 362 92 92
 92 108 108 108 108 108 108 108 75 75 75 181 181 181 181 213 213 213 213 351
 351 351 351 351 362 362 362 362 92 92 92 108 108 108 108 108 108 108 75 75
 75 181 62 62 62 213 213 213 213 351 351 351 351 351 362 362 362 362 125 125
 125 125 364 108 108 344 344 344 85 85 85 85 62 62 62 62 213 213 148 351
 351 351 351 351 362 362 362 125 125 125 125 364 364 364 364 344 344 344 85 85
 85 85 85 85 62 60 60 148 148 351 351 351 351 351 53 53 53 53 53 125