# vtk DataFile Version 2.0
Data set from IO Version 6.4.197.9a0dee2
ASCII

DATASET RECTILINEAR_GRID
DIMENSIONS 31 31 31
X_COORDINATES 31 float
-5.500000 5.500000 16.500000 27.500000 38.500000 49.500000 60.500000 71.500000 82.500000 93.500000 104.500000 115.500000 126.500000 137.500000 148.500000 159.500000 170.500000 181.500000 192.500000 203.500000 214.500000 
225.500000 236.500000 247.500000 258.500000 269.500000 280.500000 291.500000 302.500000 313.500000 324.500000 
Y_COORDINATES 31 float
-5.500000 5.500000 16.500000 27.500000 38.500000 49.500000 60.500000 71.500000 82.500000 93.500000 104.500000 115.500000 126.500000 137.500000 148.500000 159.500000 170.500000 181.500000 192.500000 203.500000 214.500000 
225.500000 236.500000 247.500000 258.500000 269.500000 280.500000 291.500000 302.500000 313.500000 324.500000 
Z_COORDINATES 31 float
-5.500000 5.500000 16.500000 27.500000 38.500000 49.500000 60.500000 71.500000 82.500000 93.500000 104.500000 115.500000 126.500000 137.500000 148.500000 159.500000 170.500000 181.500000 192.500000 203.500000 214.500000 
225.500000 236.500000 247.500000 258.500000 269.500000 280.500000 291.500000 302.500000 313.500000 324.500000 
CELL_DATA 27000
SCALARS FeatureIds int 1
LOOKUP_TABLE default
 367 367 367 367 276 276 276 276 276 276 283 283 283 279 279 279 279 279 279 50
 50 50 280 280 280 60 60 367 367 367 367 367 367 367 17 276 276 276 276 283
 283 283 283 283 300 300 279 279 279 50 50 81 81 280 280 60 367 367 367 367
 367 367 367 367 17 17 276 276 276 283 283 283 283 283 300 300 279 279 279 81
 81 81 81 81 115 115 115 367 367 367 367 367 367 17 17 17 17 242 242 283
 283 283 283 283 300 300 279 279 81 81 81 81 81 81 115 115 115 115 367 367
 163 367 367 17 17 17 242 242 242 242 283 283 283 283 283 278 279 81 81 81
 81 81 81 81 115 115 115 115 163 163 163 163 66 66 17 242 242 242 242 242
 283 283 283 283 283 278 36 36 36 81 81 81 81 81 115 115 115 115 163 163
 163 66 66 66 242 242 242 242 242 242 389 389 389 389 389 36 36 36 36 36
 268 268 268 268 115 115 115 163 163 163 66 66 66 66 66 242 242 242 242 242
 389 389 389 389 36 36 36 36 36 36 268 268 268 268 308 308 308 308 66 66
 66 66 66 66 66 242 201 201 201 201 389 389 389 389 51 36 36 36 36 36
 268 268 268 268 308 308 308 308 66 66 66 66 66 66 66 201 201 201 201 201
 389 389 51 51 51 51 144 144 144 214 214 268 268 308 308 308 308 308 66 66
 66 66 66 66 66 201 201 201 201 201 201 51 51 51 51 51 144 144 144 214
 214 214 214 214 308 308 308 308 65 66 66 66 66 220 220 220 201 201 201 201
 70 70 51 51 51 51 144 144 144 214 214 214 214 214 214 308 308 65 65 65
 374 374 220 220 220 220 220 92 92 92 70 70 70 51 51 51 144 144 144 214
 214 214 214 214 214 214 374 374 374 374 374 374 386 220 220 220 220 92 92 92
 70 70 70 70 51 243 144 144 214 214 214 214 214 214 214 214 374 374 374 374
 374 386 386 386 386 220 220 92 92 92 70 70 70 70 243 243 243 243 214 214
 214 214 214 214 214 214 374 374 374 374 374 386 386 386 386 386 386 92 92 72
 72 72 70 243 243 243 243 243 243 214 214 214 214 214 214 214 116 116 374 374
 12 12 386 386 386 386 386 72 72 72 72 72 243 243 243 243 243 243 243 171
 18 18 18 18 18 116 116 116 116 12 12 12 12 386 386 386 260 260 260 72
 72 72 243 243 243 243 243 243 243 171 18 18 18 18 18 30 30 116 116 12
 12 12 12 209 386 260 260 260 260 260 260 324 243 243 243 243 243 243 243 18
 18 18 18 18 18 30 30 30 30 12 12 12 209 217 217 260 260 260 260 260
 260 324 243 243 243 243 243 243 243 18 18 18 18 18 18 30 30 30 30 12
 12 209 217 217 217 217 260 260 260 260 324 324 324 243 243 243 243 243 18 18
 18 18 18 18 18 30 30 30 30 12 325 217 217 217 217 217 260 260 260 324
 324 324 324 324 243 243 243 243 18 18 18 18 18 18 164 164 164 164 325 325
 366 366 217 217 217 217 89 89 89 89 324 324 324 157 157 243 243 347 347 347
 347 18 18 164 164 164 164 164 325 325 366 366 366 217 217 217 89 89 89 6
 6 324 157 157 157 157 243 347 347 347 347 175 175 164 164 164 164 164 164 325
 366 366 366 217 6 6 6 6 6 6 6 6 157 157 157 157 100 100 100 100
 175 175 175 164 164 164 164 164 43 43 43 366 366 4 6 6 6 6 6 6
 378 378 378 378 174 174 100 100 100 100 175 175 175 60 60 60 60 60 43 43
 43 4 4 4 6 6 6 6 6 378 378 378 378 378 174 174 174 46 46 46
 46 175 175 60 60 60 60 60 343 343 4 4 4 4 4 6 6 6 6 378
 378 378 378 378 174 174 174 46 46 46 46 46 280 60 60 60 60 60 343 343
 367 4 4 4 4 4 6 6 378 378 378 378 378 378 174 174 174 279 46 46
 46 46 280 280 60 60 60 60 367 367 367 367 4 4 4 4 276 276 378 378
 378 378 378 378 279 279 279 279 279 50 50 50 280 280 280 60 60 60 367 367
 367 367 367 367 4 276 276 276 276 276 283 283 283 300 300 300 300 279 279 50
 50 50 280 280 280 280 367 367 367 367 367 367 367 367 276 276 276 276 276 276
 283 283 283 300 300 300 300 279 279 50 50 50 280 280 280 280 367 367 367 367
 367 367 367 367 17 17 276 276 276 276 283 283 283 283 300 300 300 300 279 81
 81 81 81 81 115 115 64 367 367 367 367 367 367 17 17 17 17 242 242 283
 283 283 283 283 300 300 300 300 81 81 81 81 81 81 115 115 64 64 367 367
 367 367 367 17 17 17 17 242 242 242 283 283 283 283 278 278 278 278 81 81
 81 81 81 81 115 115 64 64 367 367 163 66 66 66 17 242 242 242 242 242
 283 283 283 283 278 278 278 36 36 81 81 81 81 268 143 115 115 64 163 163
 66 66 66 66 66 242 242 242 242 242 389 389 389 389 278 36 36 36 36 36
 268 268 268 268 268 143 143 163 163 66 66 66 66 66 322 242 242 242 242 242
 389 389 389 389 36 36 36 36 36 36 268 268 268 268 268 308 308 308 66 66
 66 66 66 66 322 322 322 201 201 201 389 389 389 51 51 36 36 36 36 36
 268 268 268 268 308 308 308 308 66 66 66 66 66 66 322 322 322 201 201 201
 201 51 51 51 51 144 144 144 144 144 268 268 268 268 308 308 308 308 66 66
 66 66 66 66 322 322 322 201 201 201 70 51 51 51 51 144 144 144 144 144
 214 214 214 214 308 308 308 308 65 65 65 66 66 66 220 220 201 201 201 201
 70 70 51 51 51 144 144 144 144 214 214 214 214 214 214 308 308 65 65 65
 374 374 220 220 220 220 220 92 92 92 70 70 70 51 51 144 144 144 144 214
 214 214 214 214 214 214 374 374 374 374 374 374 386 386 220 220 220 92 92 92
 70 70 70 70 51 144 144 144 214 214 214 214 214 214 214 214 374 374 374 374
 374 386 386 386 386 386 386 92 92 92 70 70 70 70 243 243 243 144 214 214
 214 214 214 214 214 214 374 374 374 374 374 386 386 386 386 386 386 92 92 92
 92 70 70 243 243 243 243 243 214 214 214 214 214 214 214 127 127 374 374 374
 12 12 386 386 386 386 386 92 72 72 72 72 70 243 243 243 243 243 171 171
 18 18 18 18 18 127 127 116 116 12 12 12 12 386 386 386 260 260 260 260
 72 72 243 243 243 243 243 243 171 171 18 18 18 18 18 30 127 127 116 12
 12 12 12 209 386 260 260 260 260 260 260 324 243 243 243 243 243 243 18 18
 18 18 18 18 18 30 30 127 12 12 12 12 12 217 217 260 260 260 260 260
 324 324 324 243 243 243 243 243 18 18 18 18 18 18 18 30 30 30 12 12
 12 12 217 217 217 217 260 260 260 260 324 324 324 243 243 243 243 243 18 18
 18 18 18 18 18 30 30 30 325 325 325 325 217 217 217 217 260 260 260 324
 324 225 324 324 253 253 253 253 18 18 18 18 18 18 164 164 164 164 325 325
 325 325 217 217 217 217 89 89 89 324 324 324 324 324 253 253 253 253 18 18
 18 18 18 164 164 164 164 164 325 325 325 325 217 217 217 89 89 89 89 89
 324 324 324 157 157 253 253 100 100 100 175 175 175 164 164 164 164 164 325 325
 43 366 366 4 4 6 89 89 89 6 6 324 378 157 157 253 100 100 100 100
 175 175 175 164 164 164 164 164 43 43 43 43 4 4 4 6 6 6 6 6
 378 378 378 378 174 174 100 100 100 100 175 175 175 175 164 164 60 43 43 43
 43 4 4 4 4 4 6 6 6 145 378 378 378 378 174 174 174 100 100 100
 175 175 175 175 60 60 60 60 43 43 4 4 4 4 4 4 6 6 145 145
 378 378 378 378 174 174 174 46 46 46 46 175 280 280 60 60 60 60 60 343
 367 4 4 4 4 4 4 276 145 145 378 378 378 378 108 108 108 279 46 46
 50 280 280 280 280 60 60 60 367 367 367 367 4 4 4 4 276 276 276 145
 378 378 378 108 108 108 108 279 279 50 50 50 280 280 280 280 60 367 367 367
 367 367 4 4 4 4 276 276 276 276 239 239 108 108 108 108 108 108 108 50
 50 50 280 280 280 280 367 367 367 367 367 367 367 4 4 276 276 276 276 276
 239 239 239 239 300 300 300 108 50 50 50 50 280 280 280 280 367 367 367 367
 367 367 367 367 17 17 276 276 276 239 239 239 239 239 300 300 300 300 50 50
 81 81 81 280 280 64 64 64 367 367 367 367 367 17 17 17 17 242 242 239
 239 239 239 239 300 278 278 278 1 81 81 81 81 81 115 64 64 64 64 367
 367 367 367 17 17 17 17 242 242 239 239 239 239 239 278 278 278 278 1 1
 81 81 81 33 143 64 64 64 64 367 66 66 66 118 118 118 118 242 242 239
 239 239 239 239 278 278 278 278 36 1 268 268 268 268 143 143 143 64 64 367
 66 66 66 66 118 118 118 242 242 219 239 239 239 278 278 278 36 36 36 268
 268 268 268 268 143 143 143 143 66 66 66 66 66 66 322 322 322 322 316 316
 316 316 389 278 278 36 36 36 36 268 268 268 268 268 369 143 143 66 66 66
 66 66 66 66 322 322 322 322 316 316 316 316 389 51 51 36 36 36 36 268
 268 268 268 268 308 308 308 308 66 66 66 66 66 66 322 322 322 322 316 316
 316 316 51 51 51 144 144 144 144 268 268 268 268 268 308 308 308 308 66 66
 66 66 66 66 322 322 322 322 316 316 316 316 51 51 51 144 144 144 144 144
 214 214 214 308 308 308 308 308 66 66 66 66 66 66 322 322 322 322 201 316
 70 70 51 51 51 144 144 144 144 214 214 214 214 214 308 308 308 65 65 65
 374 66 66 220 220 220 322 92 92 92 70 70 70 51 51 144 144 144 144 214
 214 214 214 214 214 214 374 374 374 374 374 374 386 386 386 386 92 92 92 92
 70 70 70 70 70 144 144 144 214 214 214 214 214 214 214 214 374 374 374 374
 374 386 386 386 386 386 293 92 92 92 70 70 70 70 70 243 277 277 277 214
 214 214 214 214 214 214 374 374 374 374 374 386 386 386 386 293 293 92 92 92
 92 70 70 243 243 243 243 277 277 277 214 214 214 214 214 127 127 127 374 374
 12 12 386 386 386 386 206 206 206 92 92 70 70 243 243 243 243 277 277 171
 277 214 214 214 127 127 127 127 127 12 12 12 12 386 386 386 206 206 206 206
 206 53 53 243 243 243 243 243 171 171 18 18 18 18 296 127 127 127 127 12
 12 12 12 386 386 260 260 260 260 260 260 324 53 53 53 243 243 243 18 18
 18 18 18 18 296 296 127 127 127 12 12 12 12 217 217 260 260 260 260 260
 260 324 53 53 53 243 243 243 18 18 18 18 18 18 296 296 296 127 127 12
 325 325 217 217 217 217 260 260 260 260 324 324 324 253 253 253 253 253 18 18
 18 18 18 18 296 296 296 296 325 325 325 325 217 217 217 217 260 260 260 324
 324 324 324 253 253 253 253 253 18 18 18 18 18 18 164 164 164 164 325 325
 325 325 217 217 217 217 89 89 89 89 324 324 324 253 253 253 253 253 18 18
 18 18 18 164 164 164 164 164 325 325 325 325 217 217 217 217 89 89 89 89
 324 324 324 253 253 253 253 100 100 100 175 175 175 164 164 164 164 164 341 325
 43 4 4 4 4 4 89 89 89 6 6 324 378 157 253 253 100 100 100 100
 175 175 175 164 164 164 164 164 43 43 43 4 4 4 4 4 4 6 145 145
 145 378 378 378 342 342 100 100 100 100 175 175 175 175 164 164 164 164 43 43
 43 4 4 4 4 4 4 145 145 145 145 145 378 378 108 108 114 114 100 100
 175 175 175 175 360 360 360 60 43 43 4 4 4 4 4 4 4 145 145 145
 145 145 378 108 108 108 108 108 46 368 368 368 280 280 360 360 360 60 60 43
 367 4 4 4 4 4 4 145 145 145 145 145 378 108 108 108 108 108 46 50
 50 280 280 280 280 360 360 60 367 367 367 4 4 4 4 4 4 276 145 145
 145 145 108 108 108 108 108 108 108 50 50 50 280 280 280 280 360 367 367 367
 367 367 4 4 4 4 276 276 276 276 239 239 108 108 108 108 108 108 306 306
 306 306 280 280 280 258 367 367 367 367 367 367 367 4 4 4 276 276 276 239
 239 239 239 239 57 57 57 108 306 306 50 50 280 280 280 258 64 64 367 367
 367 367 367 191 17 17 276 276 276 239 239 239 239 239 57 57 57 57 1 306
 81 81 33 280 64 64 64 64 64 367 367 367 367 191 17 17 17 219 219 239
 239 239 239 239 278 278 278 1 1 1 1 33 33 33 64 64 64 64 64 367
 367 367 156 118 118 118 118 219 219 239 239 239 239 239 278 278 278 1 1 1
 1 33 33 33 143 143 64 64 64 64 66 66 66 118 118 118 118 219 219 219
 239 239 239 239 278 278 278 1 1 1 1 33 33 33 143 143 143 64 64 64
 66 66 66 66 118 118 118 219 219 219 219 239 239 278 278 278 278 36 1 1
 268 268 268 369 143 143 143 143 64 66 66 66 66 66 322 322 322 322 316 316
 316 24 251 251 278 278 278 36 36 268 268 268 268 369 369 143 143 143 66 66
 66 66 66 66 322 322 322 322 316 316 316 316 251 251 251 278 36 36 313 313
 268 268 268 369 369 369 308 66 66 66 66 66 66 322 322 322 322 322 316 316
 316 316 316 185 185 185 185 144 313 313 268 268 268 369 369 369 308 66 66 66
 66 66 66 322 322 322 322 322 316 316 316 316 316 185 185 185 185 144 313 313
 214 214 241 241 241 241 308 66 66 66 66 66 66 66 322 322 322 322 316 316
 316 70 301 185 185 185 185 144 144 214 214 214 241 241 241 241 241 237 66 66
 374 66 66 66 322 322 322 322 92 92 70 70 301 301 185 185 185 144 277 214
 214 214 214 241 241 241 237 237 237 237 374 374 386 386 386 293 293 92 92 92
 70 70 301 301 301 185 185 277 277 277 214 214 214 214 214 237 237 237 237 237
 237 386 386 386 386 293 293 92 92 92 70 70 301 301 301 277 277 277 277 277
 277 214 214 214 214 214 237 237 237 237 374 386 386 386 293 293 293 206 92 92
 92 70 301 301 301 277 277 277 277 277 277 277 214 214 214 127 127 127 237 237
 12 12 386 386 386 293 206 206 206 206 206 70 53 53 53 243 277 277 277 277
 277 277 214 214 296 127 127 127 127 127 12 12 12 386 386 206 206 206 206 206
 206 53 53 53 53 53 277 277 277 277 277 18 18 296 296 296 127 127 127 127
 12 12 12 386 386 206 206 206 206 206 228 53 53 53 53 53 243 243 18 18
 18 18 18 296 296 296 127 127 127 12 12 12 12 382 217 260 260 260 260 260
 221 53 53 53 53 53 243 243 18 18 18 18 18 296 296 296 296 296 127 12
 325 325 217 382 217 217 260 260 260 260 221 221 221 53 253 253 253 253 18 18
 18 18 18 296 296 296 296 296 325 325 325 325 382 217 217 217 260 260 260 221
 221 221 221 253 253 253 253 253 18 18 18 18 18 296 296 296 296 341 325 325
 325 325 325 217 217 217 89 89 89 221 221 221 221 253 253 253 253 253 253 18
 18 18 18 164 164 164 164 341 341 325 341 341 217 217 217 217 89 89 89 89
 221 221 221 253 253 253 253 253 100 100 175 175 175 164 164 164 164 341 341 341
 341 341 4 4 4 4 89 89 89 145 145 145 221 253 253 253 253 100 100 100
 175 175 175 164 164 164 164 341 341 341 341 4 4 4 4 4 4 145 145 145
 145 145 145 342 342 342 114 114 114 100 368 368 368 349 360 360 164 341 341 341
 4 4 4 4 4 4 4 145 145 145 145 145 145 342 342 342 114 114 114 368
 368 368 368 368 360 360 360 360 341 341 4 4 4 4 4 4 4 145 145 145
 145 145 145 342 342 342 114 114 114 368 368 368 368 368 360 360 360 360 360 341
 4 4 4 4 4 4 4 145 145 145 145 145 145 108 108 108 108 108 114 368
 368 368 368 280 360 360 360 360 367 367 367 4 4 4 4 4 4 145 145 145
 145 145 108 108 108 108 108 108 306 306 306 368 280 280 280 360 360 367 367 367
 367 367 4 4 4 4 276 276 136 239 239 239 108 108 108 108 108 108 306 306
 306 306 280 258 258 258 258 258 367 367 367 367 4 4 4 4 276 276 136 239
 239 239 239 239 57 57 57 108 306 306 306 306 280 258 258 258 258 64 367 367
 367 367 191 191 191 191 276 276 239 239 239 239 239 239 57 57 57 309 1 306
 306 33 33 258 258 258 64 64 64 367 367 367 191 191 191 191 219 219 219 239
 239 239 239 239 239 278 278 1 1 1 1 33 33 33 258 64 64 64 64 64
 367 156 156 156 156 118 118 219 219 219 239 239 239 239 278 278 278 1 1 1
 1 33 33 33 143 143 64 64 64 64 66 156 156 156 156 118 118 219 219 219
 219 239 239 239 278 278 278 1 1 1 1 33 33 33 143 143 143 64 64 64
 66 66 156 156 156 118 118 219 219 219 219 24 251 251 251 278 278 1 1 1
 1 33 33 369 369 143 143 143 64 66 66 66 66 66 322 322 322 219 219 219
 24 24 251 251 251 278 278 36 313 313 268 268 369 369 369 369 143 143 66 66
 66 66 66 322 322 322 322 322 316 316 316 24 251 251 251 251 185 313 313 313
 313 268 369 369 369 369 370 370 370 66 66 66 66 322 322 322 322 322 316 316
 316 316 251 185 185 185 185 185 313 313 313 369 369 369 369 369 370 370 370 66
 66 66 66 322 322 322 322 322 316 316 316 316 185 185 185 185 185 185 313 313
 313 241 241 241 241 241 370 370 370 66 66 66 66 322 322 322 322 322 316 316
 316 301 301 185 185 185 185 185 313 313 313 241 241 241 241 241 370 370 370 66
 374 66 66 83 83 83 83 83 316 92 70 301 301 301 301 185 185 185 277 277
 277 241 241 241 241 241 237 237 237 237 237 237 75 83 83 83 83 83 92 92
 70 301 301 301 301 185 185 277 277 277 277 277 241 241 241 241 237 237 237 237
 237 75 386 386 83 83 83 83 92 92 301 301 301 301 301 301 277 277 277 277
 277 277 277 214 241 241 237 237 237 237 75 75 75 386 293 293 293 206 206 92
 301 301 301 301 301 277 277 277 277 277 277 277 277 214 296 127 127 127 237 237
 128 128 128 386 293 293 206 206 206 206 228 228 53 53 53 53 277 277 277 277
 277 277 277 296 296 296 127 127 127 127 128 128 128 128 386 206 206 206 206 228
 228 228 53 53 53 53 277 277 277 277 277 277 296 296 296 296 127 127 127 127
 128 128 128 128 382 206 206 206 206 228 228 228 53 53 53 53 277 277 277 277
 18 18 296 296 296 296 296 127 127 127 12 382 382 382 382 382 260 260 260 228
 228 228 53 53 53 53 53 44 44 44 44 18 296 296 296 296 296 296 296 12
 341 382 382 382 382 382 260 260 260 228 221 221 99 99 253 253 253 44 44 44
 44 18 296 296 296 296 296 296 296 341 341 382 382 382 382 382 382 260 260 221
 221 221 99 99 253 253 253 44 44 44 44 18 296 296 296 296 296 341 341 341
 341 341 382 382 382 382 382 234 234 221 221 221 99 99 253 253 253 253 44 44
 44 20 296 296 296 296 341 341 341 341 341 341 382 382 382 382 234 234 234 234
 221 221 99 99 253 253 253 114 114 114 44 349 349 349 164 164 341 341 341 341
 341 341 341 4 4 4 234 234 234 234 234 221 99 99 342 253 114 114 114 114
 368 349 349 349 349 164 341 341 341 341 341 341 4 4 4 4 4 234 234 145
 145 145 122 342 342 342 114 114 114 114 368 368 349 349 349 360 341 341 341 341
 341 4 4 4 4 4 4 145 145 145 145 145 122 342 342 342 114 114 114 368
 368 368 368 349 360 360 360 341 341 341 4 4 4 4 4 4 4 145 145 145
 145 145 122 342 342 342 342 114 114 368 368 368 368 368 360 360 360 360 341 341
 4 4 4 4 4 4 4 145 145 145 145 145 122 108 108 108 108 114 114 306
 368 368 368 368 360 360 360 360 367 367 4 4 4 4 4 4 4 145 145 145
 145 145 108 108 108 108 108 108 306 306 306 368 368 368 280 258 258 367 367 367
 350 350 160 160 160 160 136 136 136 136 59 59 59 108 108 108 108 108 306 306
 306 306 306 258 258 258 258 258 350 350 350 350 160 160 160 160 136 136 136 136
 239 239 239 239 57 57 309 309 306 306 306 306 258 258 258 258 258 258 350 350
 350 350 191 191 191 191 136 136 136 136 239 239 239 239 309 309 309 309 306 306
 306 306 258 258 258 258 258 64 350 350 350 191 191 191 191 191 219 219 219 219
 239 239 239 239 309 309 309 309 1 1 1 33 33 33 258 258 64 64 64 350
 350 156 156 156 156 118 219 219 219 219 219 239 239 239 278 309 309 1 1 1
 1 33 33 33 143 143 143 64 64 64 61 61 156 156 156 118 219 219 219 219
 219 219 251 251 251 278 309 1 1 1 1 33 33 33 143 143 143 284 284 61
 61 61 156 156 156 118 219 219 219 219 219 24 251 251 251 278 278 1 1 1
 1 369 369 369 369 143 143 284 284 61 61 61 156 156 156 322 219 219 219 219
 24 24 251 251 251 251 251 10 10 10 10 369 369 369 369 369 284 284 284 61
 61 66 66 322 322 322 322 29 29 316 24 24 251 251 251 251 185 313 313 313
 313 369 369 369 369 369 370 370 370 284 66 66 66 322 322 322 322 29 316 316
 316 24 251 251 185 185 185 313 313 313 313 369 369 369 241 370 370 370 370 370
 66 66 66 322 322 322 322 29 29 316 316 316 251 185 185 185 185 185 313 313
 313 241 241 241 241 241 370 370 370 370 31 66 66 134 322 322 322 29 29 316
 316 301 301 185 185 185 185 185 313 313 313 241 241 241 241 241 370 370 31 31
 31 31 75 83 83 83 83 83 138 138 301 301 301 301 185 185 185 185 277 277
 277 241 241 241 241 241 237 237 237 31 31 75 75 75 83 83 83 83 138 138
 301 301 301 301 301 185 185 277 277 277 277 277 241 241 241 241 237 237 237 31
 75 75 75 75 83 83 83 83 138 138 301 301 301 301 301 301 277 277 277 277
 277 277 277 241 241 25 25 237 237 237 75 75 75 75 293 293 293 206 138 138
 228 301 301 301 301 301 277 277 277 277 277 277 277 277 296 25 25 25 25 237
 128 128 128 128 293 293 206 206 206 228 228 228 228 53 53 277 277 277 277 277
 277 277 277 296 296 296 296 127 127 391 128 128 128 128 170 170 206 206 228 228
 228 228 228 53 53 53 277 277 277 277 277 277 296 296 296 296 296 127 391 391
 128 128 128 170 170 170 170 206 228 228 228 228 228 53 53 53 277 44 44 44
 44 44 296 296 296 296 296 296 296 391 128 382 382 382 170 170 170 170 228 228
 228 228 228 53 53 53 53 44 44 44 44 44 296 296 296 296 296 296 296 391
 341 382 382 382 382 170 170 170 228 228 228 228 99 99 99 253 253 44 44 44
 44 44 296 296 296 296 296 296 296 341 341 382 382 382 382 382 170 170 228 228
 228 99 99 99 99 253 253 44 44 44 44 20 296 296 296 296 296 341 341 341
 341 341 382 382 382 382 382 234 234 234 228 99 99 99 99 253 253 44 44 44
 44 20 20 296 296 296 341 341 341 341 341 341 382 382 382 382 234 234 234 234
 234 99 99 99 99 253 253 114 44 44 44 20 349 349 349 296 341 341 341 341
 341 341 341 4 4 234 234 234 234 234 234 122 99 99 99 342 114 114 114 368
 368 349 349 349 349 349 341 341 341 341 341 341 4 4 4 4 234 234 234 234
 145 122 122 122 342 342 114 114 114 368 368 368 349 349 349 349 341 341 341 341
 341 4 4 4 4 4 4 234 234 145 145 122 122 122 342 342 342 114 114 368
 368 368 368 349 349 288 288 288 341 341 4 4 4 4 4 4 4 145 145 145
 145 122 122 122 342 342 342 114 114 368 368 368 368 368 368 103 288 288 288 288
 4 4 4 4 4 4 4 102 145 145 145 145 59 108 108 108 108 114 306 306
 368 368 368 368 368 103 103 288 288 350 350 4 4 4 4 4 4 102 102 145
 145 59 59 108 108 108 108 108 306 306 306 306 368 368 103 103 103 103 350 350
 350 350 160 160 160 160 136 136 136 136 59 59 59 59 108 108 108 306 306 306
 306 306 306 103 103 103 103 350 350 350 350 350 160 160 160 160 136 136 136 136
 136 59 59 59 309 309 309 309 306 306 306 306 258 258 258 258 258 350 350 350
 350 350 160 160 160 160 136 136 136 136 136 120 120 120 309 309 309 309 111 111
 111 111 258 258 258 258 258 350 350 350 350 350 191 191 191 160 219 219 219 219
 219 120 120 120 309 309 309 309 111 111 111 111 33 258 258 258 258 350 350 350
 350 156 156 156 156 156 219 219 219 219 219 120 120 120 344 309 309 309 1 1
 111 33 33 33 143 143 143 284 284 350 61 61 156 156 156 156 219 219 219 219
 219 219 120 120 344 344 344 309 1 1 1 369 369 369 369 143 284 284 284 61
 61 61 156 156 156 156 219 219 219 219 219 24 251 251 251 344 344 10 10 10
 10 369 369 369 369 369 284 284 284 61 61 61 134 134 134 134 29 29 219 219
 219 24 251 251 251 251 281 10 10 10 10 369 369 369 369 369 284 284 284 61
 61 134 134 134 134 134 29 29 29 29 24 24 251 251 251 281 281 10 10 10
 10 369 369 369 369 369 284 284 284 284 66 134 134 134 134 29 29 29 29 29
 135 24 251 251 185 185 281 10 313 313 313 369 369 369 241 339 370 370 370 284
 31 134 134 134 134 134 29 29 29 29 135 135 185 185 185 185 185 185 313 313
 313 241 241 241 241 241 370 370 370 284 31 31 134 134 134 134 29 29 29 29
 138 135 301 185 185 185 185 185 313 313 313 241 241 241 241 241 370 31 31 31
 31 31 31 134 83 83 83 29 138 138 138 138 301 301 185 185 185 185 277 277
 277 241 241 241 241 241 237 31 31 31 31 75 75 75 83 83 83 138 138 138
 138 138 301 301 301 185 185 277 277 277 277 277 241 241 241 25 25 31 31 31
 75 75 75 75 83 83 83 138 138 138 138 138 301 301 301 301 277 277 277 277
 277 277 277 241 241 25 25 25 31 31 75 75 75 75 83 83 83 138 138 138
 138 138 301 301 301 277 277 277 277 277 277 277 277 277 25 25 25 25 25 25
 391 75 128 128 170 170 170 138 138 138 228 228 228 228 228 277 277 277 277 277
 277 277 277 296 296 25 25 25 391 391 391 128 128 170 170 170 170 170 228 228
 228 228 228 228 228 53 277 277 277 277 277 277 296 296 296 296 296 391 391 391
 391 128 128 170 170 170 170 170 228 228 228 228 228 228 228 53 277 44 44 44
 44 44 296 296 296 296 296 296 391 391 391 382 382 170 170 170 170 170 228 228
 228 228 228 228 228 53 44 44 44 44 44 44 296 296 296 296 296 296 296 391
 341 382 382 382 170 170 170 170 228 228 228 228 228 99 99 99 44 44 44 44
 44 20 20 296 296 296 296 296 296 341 341 382 382 382 382 382 170 170 228 228
 228 228 99 99 99 99 253 44 44 44 20 20 20 296 296 296 296 296 341 341
 341 341 382 382 382 382 170 234 234 228 68 68 99 99 99 99 198 44 44 44
 20 20 20 296 296 296 296 341 341 341 341 341 341 382 382 382 234 234 234 234
 68 68 68 99 99 363 363 109 109 109 109 20 20 349 296 296 341 341 341 341
 341 341 341 382 382 234 234 234 234 234 68 68 68 99 363 363 363 114 109 109
 109 109 349 349 349 349 341 341 341 341 341 341 341 4 4 4 234 234 234 234
 68 122 122 122 363 363 363 114 114 109 368 368 349 349 349 288 288 341 341 341
 341 341 4 4 4 4 234 234 234 227 145 122 122 122 342 363 363 114 114 368
 368 368 368 349 349 288 288 288 288 341 341 4 4 4 4 4 4 234 227 227
 227 122 122 122 342 342 342 114 368 368 368 368 368 368 368 103 288 288 288 288
 350 4 4 4 4 4 102 102 102 227 59 59 59 59 108 108 108 114 306 306
 306 368 368 368 103 103 103 288 288 288 350 350 4 160 4 4 102 102 102 59
 59 59 59 59 108 108 108 306 306 306 306 368 368 103 103 103 103 103 350 350
 350 350 160 160 160 160 102 102 136 136 59 59 59 59 379 379 379 379 379 306
 306 306 103 103 103 103 103 350 350 350 350 350 160 160 160 160 136 136 136 136
 136 59 59 120 309 309 309 309 111 111 111 306 103 103 103 103 103 350 350 350
 350 350 160 160 160 160 136 136 136 136 136 120 120 120 309 309 309 309 111 111
 111 111 258 258 258 258 258 350 350 350 350 222 222 160 160 160 136 136 136 136
 120 120 120 120 309 309 309 309 111 111 111 111 111 258 258 258 125 125 350 350
 222 222 222 222 222 222 219 219 219 219 120 120 120 120 344 344 309 309 111 111
 111 111 33 369 369 284 284 125 125 125 222 222 222 222 222 222 219 219 219 219
 219 120 120 120 344 344 344 309 10 10 10 10 369 369 369 284 284 284 284 284
 61 222 222 222 134 134 219 219 219 219 219 97 97 97 344 344 344 10 10 10
 10 10 369 369 369 284 284 284 284 284 61 134 134 134 134 134 29 29 29 219
 97 97 97 281 281 281 281 10 10 10 10 10 369 369 369 284 284 284 284 284
 61 134 134 134 134 134 29 29 29 29 135 135 135 281 281 281 281 10 10 10
 10 369 369 369 339 339 284 284 284 284 134 134 134 134 134 134 29 29 29 29
 135 135 135 281 281 281 281 281 10 10 10 369 369 339 339 339 339 284 284 284
 134 134 134 134 134 134 29 29 29 29 135 135 135 281 281 281 281 281 188 188
 188 241 241 241 339 339 339 284 284 284 31 134 134 134 134 134 29 29 29 29
 135 135 135 185 185 185 185 185 188 188 188 241 241 241 241 339 339 31 31 31
 31 31 134 134 134 134 83 29 138 138 138 138 301 301 185 185 185 185 188 188
 188 241 241 241 241 241 25 31 31 31 31 31 75 134 83 83 83 138 138 138
 138 138 301 301 301 185 185 277 277 277 277 277 241 241 241 25 25 25 31 31
 31 75 75 75 83 83 83 138 138 138 138 138 138 301 301 301 277 277 277 277
 277 277 277 241 25 25 25 25 25 31 75 75 75 75 83 83 138 138 138 138
 138 138 138 301 301 277 277 277 277 277 277 277 277 271 25 25 25 25 25 31
 391 391 128 128 170 170 170 138 138 138 138 138 228 228 228 277 277 277 277 277
 277 277 271 271 271 25 25 25 391 391 391 391 128 170 170 170 170 170 228 228
 228 228 228 228 228 228 277 277 277 277 277 277 271 271 271 296 25 391 391 391
 391 391 128 170 170 170 170 170 228 228 228 228 228 228 228 228 79 79 44 44
 44 271 271 296 296 296 296 296 391 391 391 391 382 170 170 170 170 170 228 228
 228 228 228 228 228 198 79 79 44 44 44 20 20 296 296 296 296 296 296 391
 341 382 382 382 170 170 170 170 228 228 228 228 228 228 228 198 198 79 44 44
 20 20 20 296 296 296 296 296 296 341 341 341 382 382 382 170 170 170 228 228
 228 228 228 228 198 198 198 198 44 20 20 20 20 20 296 296 296 296 341 341
 341 213 382 382 382 382 244 244 244 68 68 68 68 99 198 198 198 198 109 109
 20 20 20 20 296 296 296 341 341 341 341 213 213 382 382 244 244 244 244 68
 68 68 68 68 198 198 198 109 109 109 109 20 20 20 230 230 341 341 341 341
 341 213 213 213 335 335 244 244 244 68 68 68 68 68 363 363 363 109 109 109
 109 109 230 230 230 230 341 341 341 341 341 341 213 335 335 335 335 244 227 227
 227 227 121 121 363 363 363 109 109 109 109 368 230 230 230 288 288 288 341 341
 341 341 4 4 335 335 335 227 227 227 227 227 121 121 363 363 363 114 114 368
 368 368 368 230 230 288 288 288 288 288 341 4 4 4 4 335 227 227 227 227
 227 59 121 121 121 121 379 379 368 368 368 368 368 368 103 103 288 288 288 288
 350 350 4 4 4 102 102 102 227 227 59 59 59 121 121 379 379 379 379 306
 368 368 368 368 103 103 103 288 288 288 350 350 160 160 160 160 102 102 102 59
 59 59 59 59 121 379 379 379 379 306 306 368 368 103 103 103 103 288 350 350
 350 350 160 160 160 160 102 102 136 136 59 59 59 59 379 379 379 379 379 379
 306 183 183 183 103 103 103 350 350 350 350 350 160 160 160 377 136 136 136 136
 136 59 59 120 309 309 309 309 379 379 111 183 183 103 103 103 125 350 350 350
 350 350 160 160 160 377 136 136 136 136 120 120 120 120 309 309 309 309 111 111
 111 111 183 103 103 125 125 125 350 350 222 222 222 222 160 377 377 136 136 136
 120 120 120 120 309 309 309 309 111 111 111 111 111 125 125 125 125 125 125 350
 222 222 222 222 222 222 219 219 219 219 120 120 120 120 344 309 309 309 111 111
 111 111 33 369 125 125 125 125 125 125 222 222 222 222 222 222 219 219 219 97
 97 120 120 120 344 344 344 309 10 10 10 10 369 369 369 284 284 284 284 222
 222 222 222 222 134 134 219 219 97 97 97 97 97 97 344 344 344 10 10 10
 10 10 369 369 339 284 284 284 284 222 222 222 134 134 134 134 29 29 29 97
 97 97 97 97 281 281 281 10 10 10 10 10 369 369 339 339 284 284 284 284
 134 134 134 134 134 134 29 29 29 97 135 135 135 281 281 281 281 281 10 10
 10 10 369 339 339 339 284 284 284 284 134 134 134 134 134 134 29 29 29 135
 135 135 135 281 281 281 281 281 10 10 188 188 369 339 339 339 339 284 284 284
 199 134 134 134 134 134 29 29 29 135 135 135 135 281 281 281 281 281 188 188
 188 188 241 339 339 339 339 339 199 199 199 134 134 134 134 134 134 29 29 135
 135 135 135 281 281 281 281 188 188 188 188 188 241 339 339 339 339 339 199 199
 31 31 134 134 134 134 134 138 138 138 138 138 138 281 281 281 281 188 188 188
 188 188 241 241 339 339 25 31 31 31 31 31 75 134 134 134 138 138 138 138
 138 138 138 301 301 281 281 188 188 188 188 188 241 241 25 25 25 25 31 31
 31 31 23 23 23 83 138 138 138 138 138 138 138 14 14 14 277 277 277 277
 277 277 277 25 25 25 25 25 25 31 31 23 23 23 23 138 138 138 138 138
 138 138 14 14 14 14 277 277 277 277 277 277 271 271 271 25 25 25 25 31