# vtk DataFile Version 2.0
Data set from IO Version 6.4.197.9a0dee2
ASCII

DATASET RECTILINEAR_GRID
DIMENSIONS 31 31 31
X_COORDINATES 31 float
-5.500000 5.500000 16.500000 27.500000 38.500000 49.500000 60.500000 71.500000 82.500000 93.500000 104.500000 115.500000 126.500000 137.500000 148.500000 159.500000 170.500000 181.500000 192.500000 203.500000 214.500000 
225.500000 236.500000 247.500000 258.500000 269.500000 280.500000 291.500000 302.500000 313.500000 324.500000 
Y_COORDINATES 31 float
-5.500000 5.500000 16.500000 27.500000 38.500000 49.500000 60.500000 71.500000 82.500000 93.500000 104.500000 115.500000 126.500000 137.500000 148.500000 159.500000 170.500000 181.500000 192.500000 203.500000 214.500000 
225.500000 236.500000 247.500000 258.500000 269.500000 280.500000 291.500000 302.500000 313.500000 324.500000 
Z_COORDINATES 31 float
-5.500000 5.500000 16.500000 27.500000 38.500000 49.500000 60.500000 71.500000 82.500000 93.500000 104.500000 115.500000 126.500000 137.500000 148.500000 159.500000 170.500000 181.500000 192.500000 203.500000 214.500000 
225.500000 236.500000 247.500000 258.500000 269.500000 280.500000 291.500000 302.500000 313.500000 324.500000 
CELL_DATA 27000
SCALARS FeatureIds int 1
LOOKUP_TABLE default
 330 330 330 145 145 145 145 145 145 221 221 221 221 221 231 231 231 142 142 142
 142 69 69 52 52 136 136 136 330 330 80 80 80 145 145 145 145 145 221 221
 221 221 221 221 124 124 124 142 142 142 142 110 110 52 52 52 136 136 327 330
 327 80 80 145 145 382 382 382 273 273 221 221 221 221 124 124 124 124 142 142
 142 142 110 52 52 52 52 327 327 327 327 80 80 145 382 382 382 382 273 273
 273 221 221 124 124 124 124 124 245 245 245 245 245 52 52 52 305 327 327 327
 327 327 43 43 382 382 382 382 273 273 273 273 221 124 124 124 124 124 245 245
 245 245 112 305 305 305 305 305 327 327 327 376 376 123 382 382 101 101 101 273
 273 273 193 124 124 124 403 403 403 403 112 112 112 305 305 305 305 305 376 376
 376 376 376 123 123 101 101 101 101 273 193 193 193 120 120 403 403 403 403 403
 112 112 112 305 305 305 305 305 376 376 376 376 123 123 123 155 155 155 155 155
 193 193 193 120 120 403 403 403 403 403 112 112 112 305 305 305 305 305 376 376
 376 376 123 123 123 155 155 155 155 155 193 193 193 120 120 403 403 403 403 403
 112 112 112 305 305 305 305 305 376 376 376 286 123 123 123 155 155 155 155 155
 193 211 211 211 211 403 102 102 102 403 112 112 66 66 305 305 305 305 329 376
 286 286 286 123 123 155 155 155 155 155 155 211 211 211 211 211 118 118 118 118
 98 98 66 66 66 305 329 329 329 329 286 286 286 286 123 155 155 155 155 173
 173 211 211 211 211 211 118 118 118 118 98 98 98 66 66 305 329 329 329 329
 329 286 286 286 232 232 232 173 173 173 173 211 211 211 211 211 402 402 402 402
 98 98 98 98 329 329 329 329 329 329 329 329 286 286 232 232 232 173 173 173
 173 173 211 211 211 45 402 402 402 402 98 98 98 268 104 104 329 329 329 329
 329 329 286 232 232 232 232 173 173 173 173 173 211 45 45 45 45 402 402 402
 402 268 268 268 268 104 104 329 329 329 329 329 329 232 232 232 232 173 173 173
 220 220 220 45 45 45 45 402 402 20 20 268 268 268 268 104 104 104 329 329
 260 260 260 235 232 33 33 220 220 220 220 220 220 220 45 45 45 45 20 20
 20 268 268 268 268 268 284 284 260 260 260 260 260 235 33 33 33 33 33 220
 220 220 220 220 45 45 45 20 20 20 20 20 268 268 268 284 284 284 260 260
 260 166 166 352 33 33 33 33 33 220 220 220 220 220 220 45 45 20 20 20
 20 20 268 268 252 17 284 260 260 260 166 166 166 352 352 33 33 33 33 220
 220 220 220 220 220 156 156 20 20 20 20 20 268 252 252 252 17 17 166 166
 166 166 166 352 44 44 33 33 128 128 128 220 220 220 156 156 156 156 156 20
 20 20 252 252 252 252 17 17 166 166 166 166 166 352 44 44 44 33 128 128
 128 220 220 156 156 156 156 156 156 156 156 10 17 17 17 17 17 166 166 166
 166 166 166 166 44 44 44 44 128 128 128 128 291 156 156 156 156 156 156 156
 156 10 271 271 17 17 17 166 166 166 276 276 276 276 44 44 44 44 128 128
 128 291 291 291 291 156 156 184 184 10 10 10 271 271 271 271 136 166 166 166
 276 276 276 276 215 215 269 269 4 4 291 291 291 291 291 291 156 184 10 10
 10 10 136 136 136 136 136 136 166 166 276 276 276 276 145 269 269 269 269 325
 291 291 291 291 291 291 354 354 10 10 10 10 136 136 136 136 136 136 236 236
 330 330 330 145 145 269 269 269 269 325 332 332 291 291 291 291 354 354 354 10
 10 10 136 136 136 136 136 136 236 236 330 330 330 145 145 145 269 269 269 325
 332 332 332 291 291 354 354 354 354 354 69 69 136 136 136 136 136 136 136 136
 330 330 370 145 145 145 145 269 269 325 332 332 332 231 231 231 354 354 354 69
 69 69 69 136 136 136 136 136 136 330 330 330 330 145 145 145 145 145 145 221
 221 221 221 231 231 231 231 354 142 142 69 69 69 136 136 136 136 136 136 330
 330 330 330 145 145 145 145 145 121 221 221 221 221 221 231 231 231 142 142 142
 142 142 175 175 175 136 136 136 330 330 330 330 330 145 145 145 145 121 121 121
 221 221 221 221 231 231 231 142 142 142 142 142 175 175 175 175 136 330 330 330
 43 43 43 43 145 382 382 382 273 273 221 221 221 221 124 124 124 142 142 142
 142 142 175 175 175 52 52 327 327 327 43 43 43 43 382 382 382 382 273 273
 273 221 221 221 124 124 124 124 142 142 142 142 142 175 194 194 265 265 327 327
 43 43 43 43 382 382 382 382 382 273 273 273 221 124 124 124 124 124 245 245
 245 142 194 194 194 194 265 265 265 327 43 43 43 43 382 382 101 101 101 273
 273 273 189 189 189 189 403 403 403 403 112 112 112 194 194 194 265 265 265 265
 376 376 123 319 319 319 101 101 101 273 193 193 193 189 189 189 403 403 403 403
 112 112 112 194 194 305 305 265 376 376 376 376 123 123 123 319 155 155 155 155
 193 193 193 189 189 189 403 403 403 403 112 112 112 112 305 305 305 305 376 376
 376 123 123 123 123 155 155 155 155 155 193 193 274 189 189 189 403 403 403 403
 112 112 112 112 305 305 305 305 376 376 376 123 123 123 123 155 155 155 155 155
 155 274 211 211 211 403 403 403 403 403 112 112 112 112 305 305 305 329 329 329
 329 286 123 123 123 155 155 155 155 155 155 211 211 211 211 211 118 118 118 118
 98 250 66 66 66 305 329 329 329 329 329 286 286 123 123 155 155 155 155 155
 173 211 211 211 211 118 118 118 118 118 250 250 250 250 66 329 329 329 329 329
 329 329 286 286 232 232 155 155 173 173 173 165 165 165 165 118 118 118 118 118
 98 250 98 98 329 329 329 329 329 329 329 329 329 329 232 232 295 295 173 173
 173 165 165 165 165 165 402 402 402 402 402 268 268 268 329 329 329 329 329 329
 329 329 329 307 232 295 295 295 295 173 173 220 165 165 165 45 45 402 402 402
 402 268 268 268 268 268 329 329 329 329 329 329 329 307 295 295 295 295 295 220
 220 220 220 220 45 45 149 149 402 402 20 268 268 268 268 268 329 329 329 329
 260 260 260 235 235 295 295 295 295 220 220 220 220 220 45 149 149 149 20 20
 20 268 268 268 268 268 329 329 260 260 260 260 235 235 235 295 295 295 220 220
 220 220 220 220 220 149 149 149 20 20 20 268 268 268 268 17 17 260 260 260
 260 260 352 352 352 352 33 33 220 220 220 220 220 220 220 220 149 20 20 20
 20 20 268 268 17 17 17 260 260 260 166 166 352 352 352 352 33 33 220 220
 220 220 220 220 220 220 356 212 20 20 20 17 17 17 17 17 17 17 260 260
 166 166 352 352 352 352 33 33 128 128 128 220 220 220 324 156 212 212 212 212
 20 17 17 17 17 17 17 17 166 166 166 166 166 352 352 352 215 128 128 128
 128 220 324 324 324 156 212 212 212 212 10 10 17 17 17 17 17 17 166 166
 166 276 276 276 215 215 215 215 128 128 128 128 291 324 156 156 184 184 184 10
 10 10 271 271 17 17 17 166 166 166 276 276 276 276 215 215 215 215 128 128
 128 291 291 291 291 291 184 184 184 10 10 10 271 271 271 271 17 166 166 276
 276 276 276 276 215 215 215 4 4 4 4 291 291 291 291 291 184 184 10 10
 10 10 271 271 271 136 136 236 236 276 276 276 276 276 269 269 269 269 4 4
 4 291 291 291 291 291 354 10 10 10 10 10 10 136 136 136 136 236 236 236
 330 330 330 145 269 269 269 269 269 4 332 332 291 291 291 291 354 10 10 10
 10 10 136 136 136 136 136 236 236 236 330 330 330 145 145 145 269 269 269 269
 332 332 332 291 291 231 354 354 10 10 10 10 136 136 136 136 136 236 236 236
 330 330 330 145 145 145 145 269 269 269 332 332 332 231 231 231 231 354 354 10
 69 69 69 136 136 136 136 136 236 330 330 330 330 145 145 145 145 145 145 221
 221 221 221 231 231 231 231 231 142 142 142 69 69 136 136 136 136 136 236 330
 330 330 330 145 145 145 145 145 121 121 221 221 221 221 231 231 231 142 142 142
 142 142 175 175 175 175 175 31 330 330 330 330 330 145 145 145 145 121 121 121
 121 221 221 221 231 231 231 142 142 142 142 142 175 175 175 175 175 31 31 330
 43 43 43 43 382 382 382 382 121 121 121 221 221 221 124 124 124 142 142 142
 142 142 175 175 175 175 265 265 265 43 43 43 43 43 382 382 382 382 382 273
 273 221 221 221 124 124 124 142 142 142 142 142 175 175 175 265 265 265 265 43
 43 43 43 43 382 382 382 382 382 273 273 273 221 189 124 124 124 403 32 32
 142 194 194 194 194 194 265 265 265 265 43 43 43 319 319 382 382 382 382 382
 273 274 189 189 189 189 403 403 32 32 112 112 194 194 194 194 265 265 265 265
 22 22 22 319 319 319 319 382 382 382 274 274 274 189 189 189 403 403 403 32
 112 112 112 194 194 194 265 265 265 265 22 22 22 123 319 319 319 155 155 155
 274 274 274 189 189 189 403 403 403 403 112 112 112 194 194 305 265 265 265 376
 22 22 123 123 123 319 155 155 155 155 274 274 274 274 189 189 403 403 403 403
 112 112 112 112 305 305 305 305 376 376 376 123 123 123 123 155 155 155 155 155
 274 274 274 274 274 189 403 403 403 403 112 112 112 112 305 305 305 329 329 329
 329 123 123 123 123 155 155 155 155 155 274 274 274 274 274 118 118 118 118 118
 250 250 250 250 84 84 329 329 329 329 329 329 123 123 123 155 155 155 155 155
 165 165 165 165 165 118 118 118 118 118 250 250 250 250 250 329 329 329 329 329
 329 329 286 123 123 155 155 155 173 173 173 165 165 165 165 165 118 118 118 118
 250 250 250 250 329 329 329 329 329 329 329 329 329 307 307 295 295 295 295 295
 173 165 165 165 165 165 316 316 316 402 250 250 250 268 329 329 329 329 329 329
 329 329 307 307 307 295 295 295 295 295 220 165 165 165 165 165 316 316 316 402
 402 268 268 268 268 268 329 329 329 329 329 329 307 307 307 295 295 295 295 295
 220 220 220 165 165 165 149 149 176 176 268 268 268 268 268 268 329 329 329 329
 260 260 235 235 235 295 295 295 295 220 220 220 220 220 220 149 149 149 176 176
 20 268 268 268 268 268 17 329 260 260 260 260 235 235 235 295 295 295 295 220
 220 220 220 220 220 176 176 176 176 176 20 268 268 268 17 17 17 260 260 260
 260 260 235 352 352 352 295 295 220 220 220 220 220 220 220 220 356 356 356 356
 20 268 17 17 17 17 17 17 260 260 166 352 352 352 352 352 352 92 220 220
 220 220 220 220 220 356 356 356 356 356 356 17 17 17 17 17 17 17 260 260
 166 166 352 352 352 352 352 128 128 128 128 220 324 324 324 356 356 212 212 356
 356 17 17 17 17 17 17 17 17 166 166 166 352 352 352 215 215 215 128 128
 128 324 324 324 324 324 212 212 212 212 10 271 271 17 17 17 17 17 17 166
 166 276 276 352 215 215 215 215 128 128 128 128 324 324 324 324 212 212 212 10
 10 10 271 271 271 17 17 17 166 166 276 276 276 215 215 215 215 215 4 4
 4 291 291 291 291 291 184 184 10 10 10 10 271 271 271 271 17 129 129 276
 276 276 276 215 215 215 215 4 4 4 4 291 291 291 291 291 184 10 10 10
 10 10 271 271 271 271 129 236 236 236 276 276 276 215 215 215 215 4 4 4
 4 291 291 291 291 291 10 10 10 10 10 10 271 271 271 136 236 236 236 236
 330 330 330 145 145 269 269 269 4 4 4 332 291 291 291 291 10 10 10 10
 10 10 271 136 136 136 236 236 236 236 330 330 330 145 145 145 269 269 269 4
 332 332 332 291 291 231 231 10 10 10 10 10 10 136 136 136 385 236 236 236
 330 330 330 145 145 145 145 269 269 269 332 332 332 231 231 231 231 231 10 10
 10 10 55 136 136 136 385 385 236 330 330 330 330 145 145 145 145 145 121 121
 221 221 221 231 231 231 231 231 142 142 142 69 175 175 175 136 136 136 236 330
 330 330 330 145 145 145 145 121 121 121 121 121 380 380 231 231 343 343 343 142
 142 175 175 175 175 175 31 31 31 31 31 43 43 145 145 145 382 121 121 121
 121 121 221 221 231 343 343 343 343 142 142 175 175 175 175 175 31 31 31 31
 43 43 43 43 382 382 382 382 121 121 121 121 221 221 343 343 343 343 343 142
 142 175 175 175 175 175 175 31 31 31 43 43 43 43 382 382 382 382 382 121
 121 121 221 200 200 343 343 343 343 142 142 175 175 175 175 265 265 265 265 43
 43 43 43 43 382 382 382 382 382 382 273 121 221 189 189 189 32 32 32 32
 32 194 194 194 194 265 265 265 265 265 43 43 43 43 319 382 382 382 382 382
 382 274 189 189 189 189 32 32 32 32 32 112 194 194 194 194 265 265 265 265
 22 22 22 319 319 319 319 382 382 382 274 274 274 189 189 189 32 32 32 32
 32 112 112 194 194 194 265 265 265 265 22 22 22 319 319 319 319 155 155 3
 274 274 274 274 189 189 189 32 32 32 112 112 112 194 194 265 265 265 265 265
 22 22 22 123 319 319 319 155 155 3 274 274 274 274 274 189 189 403 32 32
 112 112 112 112 84 84 84 84 265 376 22 123 123 123 123 319 155 155 155 3
 274 274 274 274 274 189 403 403 403 32 112 250 112 84 84 84 84 84 329 329
 329 123 123 123 123 155 155 155 155 3 3 274 274 274 165 165 62 62 62 250
 250 250 250 250 84 84 84 329 329 329 329 329 123 123 123 227 155 155 155 3
 3 165 165 165 165 165 62 62 62 250 250 250 250 250 84 84 329 329 329 329
 329 329 329 399 227 227 295 155 61 61 61 165 165 165 165 165 316 316 316 250
 250 250 250 250 244 329 329 329 329 329 329 329 329 307 295 295 295 295 295 61
 61 165 165 165 165 165 316 316 316 316 250 250 250 250 244 244 329 329 329 329
 329 329 307 307 307 295 295 295 295 295 220 165 165 165 165 165 316 316 316 316
 250 250 268 268 268 244 329 329 329 329 329 329 307 307 307 295 295 295 295 295
 220 220 165 165 165 165 176 176 176 176 176 268 268 268 268 268 329 329 329 329
 329 260 235 235 235 295 295 295 295 295 220 220 220 220 165 176 176 176 176 176
 176 268 268 139 17 17 17 329 329 329 260 260 235 235 235 295 295 295 295 220
 220 220 220 220 220 176 176 176 176 176 176 268 139 139 17 17 17 17 260 260
 260 260 235 235 352 352 92 92 92 220 220 220 220 220 220 176 356 356 356 176
 176 17 17 17 17 17 17 17 17 260 260 352 352 352 352 352 92 92 92 220
 220 220 220 324 324 356 356 356 356 356 356 17 17 17 17 17 17 17 17 260
 331 352 352 352 352 352 92 92 92 128 128 220 324 324 324 356 356 356 356 356
 356 17 17 17 17 17 17 17 17 166 331 331 352 352 352 215 215 215 128 128
 128 324 324 324 324 324 356 212 212 356 10 271 271 271 17 17 17 17 17 166
 331 331 331 352 215 215 215 215 128 128 128 324 324 324 324 324 356 212 10 10
 10 271 271 271 271 17 17 17 17 166 276 276 276 215 215 215 215 215 4 4
 4 4 324 324 324 291 184 10 10 10 10 10 271 271 271 271 129 129 129 129
 276 276 276 215 215 215 215 4 4 4 4 4 291 291 291 291 10 10 10 10
 10 10 271 271 271 271 129 129 129 129 129 276 276 215 215 215 215 4 4 4
 4 4 291 291 291 291 10 10 10 10 10 10 271 271 271 129 129 129 129 129
 330 330 330 215 215 215 269 4 4 4 4 4 291 291 291 393 10 10 10 10
 10 10 55 55 55 55 129 385 236 236 330 330 330 145 145 145 145 269 4 4
 4 380 380 291 393 393 10 10 10 10 10 10 55 55 55 55 385 385 385 236
 330 330 330 145 145 145 145 145 269 380 380 380 380 380 393 231 231 10 10 10
 10 10 55 55 55 55 385 385 385 31 330 330 330 145 145 145 145 145 121 121
 121 380 380 380 231 231 231 343 343 343 10 175 175 175 175 175 31 31 31 31
 31 367 367 145 145 145 145 121 121 121 121 380 380 380 343 343 343 343 343 343
 343 175 175 175 175 175 31 31 31 31 31 43 43 43 145 145 121 121 121 121
 121 121 380 380 343 343 343 343 343 343 343 175 175 175 175 175 31 31 31 31
 43 43 43 43 43 382 382 382 121 121 121 121 221 200 200 343 343 343 343 343
 343 175 175 175 175 175 31 31 31 31 43 43 43 43 382 382 382 382 382 121
 121 121 200 200 200 200 343 343 343 343 343 192 192 175 175 265 265 265 265 43
 43 43 43 43 382 382 382 382 382 64 64 64 200 200 200 200 32 32 32 32
 32 113 192 194 194 265 265 265 265 265 43 43 43 43 319 382 382 382 64 64
 64 64 274 189 189 189 32 32 32 32 32 113 113 194 194 265 265 265 265 265
 22 22 22 319 319 319 319 382 64 64 64 274 274 274 189 189 32 32 32 32
 113 113 113 113 194 265 265 265 265 265 22 22 22 319 319 319 319 3 3 3
 274 274 274 274 274 189 32 32 32 32 113 113 113 113 84 84 265 265 265 265
 22 22 22 319 319 319 319 3 3 3 3 274 274 274 274 189 32 32 32 32
 113 113 113 113 84 84 84 84 265 105 22 22 123 123 319 319 319 3 3 3
 3 274 274 274 274 62 62 62 62 62 113 113 113 84 84 84 84 84 84 329
 329 123 123 123 227 227 227 3 3 3 3 274 274 274 274 62 62 62 62 62
 250 250 250 84 84 84 84 84 329 329 329 399 399 399 227 227 227 3 3 3
 3 165 165 165 165 62 62 62 62 62 250 250 250 250 84 84 84 329 329 329
 329 399 399 399 227 227 227 61 61 61 61 165 165 165 165 165 62 62 62 62
 250 250 250 250 244 244 244 329 329 329 329 399 399 399 399 295 295 295 61 61
 61 165 165 165 165 165 316 316 316 62 250 250 250 244 244 244 244 329 329 329
 329 399 399 399 399 295 295 295 295 61 61 165 165 165 165 165 316 316 176 176
 263 250 268 244 244 244 244 329 329 329 329 329 307 307 307 295 295 295 295 295
 61 165 165 165 165 176 176 176 176 176 176 176 139 139 139 244 329 329 329 329
 152 152 235 235 235 295 295 295 295 295 220 220 364 364 364 176 176 176 176 176
 176 176 139 139 139 17 17 329 152 152 152 152 235 235 235 295 295 295 295 281
 281 364 364 364 364 176 176 176 176 176 176 176 139 139 17 17 17 17 152 152
 152 152 235 235 352 352 92 92 92 281 281 364 364 364 364 176 176 176 176 176
 176 176 139 17 17 17 17 17 152 152 331 331 352 352 352 352 92 92 92 92
 220 364 364 364 364 176 356 356 356 176 176 17 17 17 17 17 17 17 17 152
 331 331 352 352 352 352 92 92 92 92 128 324 324 324 324 356 356 356 356 356
 356 240 240 240 17 17 17 17 17 331 331 331 331 352 352 215 215 92 92 128
 128 324 324 324 324 324 356 212 212 10 10 240 240 240 240 17 17 17 17 331
 331 331 331 215 215 215 215 215 4 4 4 324 324 324 324 324 356 10 10 10
 10 271 271 271 271 17 17 17 17 331 331 331 331 215 215 215 215 215 4 4
 4 4 324 324 324 324 10 10 10 10 10 10 271 271 271 271 129 129 129 129
 129 331 215 215 215 215 215 4 4 4 4 4 291 291 291 393 10 10 10 10
 10 10 271 271 271 129 129 129 129 129 129 129 326 326 326 326 326 4 4 4
 4 4 291 291 393 393 10 10 10 10 10 10 55 55 55 129 129 129 129 129
 129 129 326 326 326 326 326 4 4 4 4 4 380 291 393 393 393 10 10 10
 10 10 55 55 55 129 129 129 129 129 31 330 367 326 326 326 326 4 4 4
 380 380 380 380 393 393 393 10 10 10 10 55 55 55 55 55 385 385 129 129
 31 367 367 145 145 145 145 145 4 380 380 380 380 380 393 393 393 10 10 10
 10 55 55 55 55 55 385 385 31 31 31 367 367 145 145 145 145 121 121 121
 380 380 380 380 393 393 343 343 343 343 10 55 55 55 55 55 31 31 31 31
 31 367 367 367 267 267 267 121 121 121 380 380 380 380 343 343 343 343 343 343
 343 138 138 175 175 31 31 31 31 31 31 31 43 267 267 267 267 121 121 121
 380 380 380 380 343 343 343 343 343 343 343 138 138 175 175 175 31 31 31 31
 31 43 43 43 267 267 267 121 121 121 121 380 380 200 200 200 343 343 343 343
 343 192 192 175 175 31 31 31 31 31 313 43 43 43 382 382 382 382 382 64
 121 335 335 200 200 200 343 343 343 343 343 192 192 192 192 31 31 31 315 31
 313 313 43 43 70 382 382 382 64 64 64 335 200 200 200 200 200 32 32 32
 32 192 192 192 194 265 265 265 315 315 105 105 105 105 70 70 382 382 64 64
 64 64 274 200 200 200 32 32 32 32 113 113 113 113 194 265 265 265 265 265
 105 105 105 105 70 70 319 382 64 64 64 274 274 274 40 40 32 32 32 32
 113 113 113 113 194 265 265 265 265 105 105 105 105 105 319 319 319 3 3 3
 3 274 274 274 40 40 32 32 32 32 113 113 113 113 84 84 84 265 265 105
 105 105 105 105 319 319 319 3 3 3 3 274 274 274 274 40 40 32 32 113
 113 113 113 113 84 84 84 84 84 105 105 105 105 105 227 227 319 3 3 3
 3 274 274 274 274 62 62 62 62 180 113 113 113 84 84 84 84 84 84 105
 105 105 105 227 227 227 227 3 3 3 3 274 274 274 274 62 62 62 62 62
 250 250 250 84 84 84 84 84 84 228 228 399 399 399 227 227 227 227 3 3
 3 165 165 165 165 62 62 62 62 62 250 250 250 84 84 84 84 84 329 228
 329 399 399 399 227 227 227 61 61 61 61 61 165 165 165 62 62 62 62 62
 250 250 250 244 244 244 244 244 329 329 329 399 399 399 399 399 295 61 61 61
 61 61 165 165 165 165 62 62 62 62 263 263 244 244 244 244 244 244 329 329
 399 399 399 399 399 399 295 295 61 61 61 61 165 165 165 165 176 176 263 263
 263 263 244 244 244 244 244 244 329 329 329 399 399 399 399 295 295 295 295 61
 61 61 165 165 165 176 176 176 176 263 263 263 139 139 244 244 244 329 329 329
 152 134 134 134 134 295 295 295 281 281 281 364 364 364 364 176 176 176 176 176
 176 176 139 139 139 17 17 17 152 152 152 134 134 134 134 92 92 92 281 281
 281 364 364 364 364 176 176 176 176 176 176 176 139 139 139 17 17 17 152 152
 152 134 134 134 134 92 92 92 92 281 281 364 364 364 364 176 176 176 176 176
 176 176 139 139 17 17 17 17 152 152 331 331 352 352 352 92 92 92 92 281
 281 364 364 364 364 176 176 176 176 176 176 176 17 17 17 17 17 17 17 152
 331 331 331 352 352 352 92 92 92 92 281 254 254 254 254 176 176 176 176 176
 176 240 240 240 240 17 17 17 17 331 331 331 331 331 352 215 92 92 92 92
 281 254 254 254 254 254 176 176 176 10 10 240 240 240 240 17 17 17 17 331
 331 331 331 331 215 215 215 92 92 92 169 169 169 254 254 254 59 59 10 10
 10 10 240 240 240 17 17 17 129 331 331 331 331 331 326 215 215 215 4 171
 171 169 169 169 254 254 59 10 10 10 10 10 271 271 271 129 129 129 129 129
 129 331 331 326 326 326 326 4 4 171 171 169 169 169 393 393 10 10 10 10
 10 10 271 271 271 129 129 129 129 129 129 129 326 326 326 326 326 326 4 171
 171 171 169 393 393 393 393 10 10 10 10 10 55 55 55 129 129 129 129 129
 129 129 326 326 326 326 326 326 4 4 4 380 380 380 393 393 393 10 10 10
 10 55 55 55 55 129 129 129 129 129 367 367 326 326 326 326 326 326 224 4
 380 380 380 380 393 393 393 393 10 10 10 55 55 55 55 55 129 129 129 129
 367 367 367 326 326 326 326 326 224 380 380 380 380 380 393 393 393 343 10 10
 10 55 55 55 55 55 31 31 31 31 367 367 367 367 145 145 145 121 121 380
 380 380 380 380 393 393 343 343 343 343 343 55 55 55 55 55 31 31 31 31
 31 31 367 367 267 267 267 121 121 380 380 380 380 380 343 343 343 343 343 343
 138 138 138 138 175 31 31 31 31 31 31 31 313 267 267 267 267 121 121 380
 380 380 380 380 343 343 343 343 343 343 138 138 138 138 175 31 31 31 31 31
 313 313 313 313 267 267 267 121 121 121 335 335 335 200 200 200 343 343 343 343
 138 138 192 192 192 31 31 31 31 31 313 313 313 313 70 70 70 382 382 64
 335 335 335 200 200 200 343 343 343 343 255 192 192 192 192 31 31 315 315 315
 313 313 313 313 70 70 70 70 64 64 64 335 335 200 200 200 200 32 32 32
 255 192 192 192 192 289 265 315 315 315 105 105 105 105 70 70 70 70 64 64
 64 335 335 200 40 40 40 32 32 32 113 113 113 113 289 289 289 315 315 105
 105 105 105 105 70 70 70 70 64 64 64 274 274 40 40 40 40 32 32 32
 113 113 113 113 289 289 289 289 105 105 105 105 105 105 105 70 70 3 3 3
 3 274 274 40 40 40 40 32 32 113 113 113 113 113 289 289 289 289 105 105
 105 105 105 105 105 319 319 3 3 3 3 274 274 274 40 40 40 40 180 180
 113 113 113 113 84 84 84 84 105 105 105 105 105 105 105 227 3 3 3 3
 3 3 274 274 40 40 40 62 180 180 180 113 113 84 84 84 84 84 84 105
 105 105 105 105 227 227 227 3 3 3 3 3 274 274 190 190 62 62 62 180
 180 180 113 84 84 84 84 84 228 228 228 399 399 399 227 227 227 227 3 3
 3 3 165 190 190 190 62 62 62 62 180 250 250 84 84 84 84 228 228 228
 228 399 399 399 399 227 227 61 61 61 61 61 165 165 190 190 62 62 62 62
 62 323 323 244 244 244 244 228 228 228 228 399 399 399 399 399 114 61 61 61
 61 61 165 165 161 161 62 62 263 263 263 263 323 244 244 244 244 244 228 228
 399 399 399 399 399 399 114 61 61 61 61 61 165 161 161 161 161 263 263 263
 263 263 263 357 244 244 244 244 228 228 399 399 399 399 399 114 114 281 281 281
 281 281 281 161 161 161 176 176 263 263 263 263 357 357 357 244 244 244 152 228
 152 134 134 134 134 114 114 281 281 281 281 281 364 364 364 176 176 176 176 263
 263 263 357 357 357 17 17 152 152 152 152 134 134 134 134 134 92 281 281 281
 281 281 364 364 364 176 176 176 176 176 176 357 357 357 357 17 17 17 152 152
 152 134 134 134 134 134 92 92 281 281 281 281 364 364 364 176 176 176 176 176
 176 357 357 357 357 17 17 17 152 152 331 331 134 134 134 92 92 92 92 281
 281 281 364 364 364 176 176 176 176 176 176 357 357 357 17 17 17 17 17 152
 331 331 331 331 352 92 92 92 92 281 281 254 254 254 254 254 176 176 176 176
 176 240 240 240 240 17 17 17 17 331 331 331 331 331 331 92 92 92 92 281
 281 254 254 254 254 254 176 176 176 39 39 240 240 240 240 17 17 17 331 331
 331 331 331 331 326 215 204 92 92 171 169 169 169 254 254 254 59 59 59 10
 10 240 240 240 240 240 129 129 129 331 331 331 331 326 326 326 326 171 171 171
 171 169 169 169 254 254 59 59 59 10 10 10 271 271 271 129 129 129 129 129
 129 331 326 326 326 326 326 326 171 171 171 171 169 169 109 59 59 59 59 10
 10 10 55 271 129 129 129 129 129 129 129 129 326 326 326 326 326 326 171 171
 171 171 109 109 109 393 393 10 10 10 10 10 55 55 55 129 129 129 129 129
 129 129 326 326 326 326 326 326 171 171 171 171 109 109 393 393 393 10 10 10
 10 55 55 55 55 129 129 129 129 129 31 367 326 326 326 326 326 224 224 224
 380 380 380 109 393 393 393 393 10 10 10 55 55 55 55 55 129 129 129 129
 31 367 367 326 326 326 326 224 224 224 380 380 380 380 393 393 393 343 343 10
 55 55 55 55 55 55 31 31 31 31 31 367 367 367 326 326 326 224 224 380
 380 380 380 380 393 343 343 343 343 343 138 138 55 55 55 55 31 31 31 31
 31 31 367 267 267 267 267 226 226 226 380 380 380 380 343 343 343 343 343 343
 138 138 138 138 138 344 31 31 31 31 31 313 313 313 267 267 267 267 226 380
 380 380 380 380 343 343 343 343 343 138 138 138 138 138 344 344 31 31 31 31
 313 313 313 313 267 267 267 191 191 335 335 335 335 335 200 179 343 343 343 138
 138 138 138 138 138 344 31 31 31 31 313 313 313 313 70 70 70 191 191 335
 335 335 335 335 200 179 179 343 343 255 255 138 192 192 192 344 31 315 315 313
 313 313 313 313 70 70 70 70 64 335 335 335 335 335 200 179 179 343 255 255
 255 255 255 255 255 289 315 315 315 313 105 105 105 105 70 70 70 70 64 64
 64 335 335 40 40 40 40 32 255 255 255 255 255 255 289 289 289 315 315 105
 105 105 105 105 70 70 70 70 64 64 64 335 40 40 40 40 40 40 255 255
 255 255 255 255 289 289 289 289 105 105 105 105 105 105 105 70 70 70 3 3
 3 274 274 40 40 40 40 40 180 180 113 113 113 289 289 289 289 289 105 105
 105 105 105 105 105 70 303 303 3 3 3 274 337 337 40 40 40 40 180 180
 180 113 113 289 289 289 289 289 105 105 105 105 105 105 105 303 303 303 3 3
 3 3 337 337 337 40 40 180 180 180 180 180 113 84 84 84 84 84 105 105
 105 105 105 105 227 227 303 303 3 3 3 3 337 337 190 190 190 62 180 180
 180 180 180 28 28 28 28 228 228 228 228 399 399 399 227 227 227 303 3 3
 3 3 190 190 190 190 190 62 180 180 180 180 28 28 28 28 28 228 228 228
 228 399 399 399 399 227 114 114 61 61 61 61 190 190 190 190 190 62 62 62
 323 323 323 323 28 28 28 228 228 228 228 399 399 399 399 114 114 114 61 61
 61 61 161 161 161 161 161 62 263 263 323 323 323 323 244 244 244 228 228 228
 228 399 399 399 399 114 114 114 281 281 281 281 161 161 161 161 161 263 263 263
 263 323 323 357 357 244 244 228 228 228 228 399 399 399 114 114 114 114 281 281
 281 281 281 161 161 161 161 263 263 263 263 263 357 357 357 357 357 228 228 228
 152 134 134 134 134 114 114 281 281 281 281 281 364 364 146 146 176 176 263 263
 263 263 357 357 357 357 357 182 182 152 152 134 134 134 134 114 114 281 281 281
 281 281 364 364 146 146 176 176 176 263 263 357 357 357 357 357 383 182 182 152
 172 172 134 134 134 134 92 281 281 281 281 281 364 364 146 146 176 176 176 176
 176 357 357 357 357 357 383 383 383 152 172 172 172 134 134 134 92 92 281 281
 281 281 254 254 254 176 176 176 176 176 357 357 357 357 357 357 383 383 383 383
 172 172 172 172 134 204 204 204 204 281 281 254 254 254 254 254 176 176 176 39
 39 357 357 357 357 383 383 383 383 172 331 331 331 331 331 204 204 204 204 204
 281 254 254 254 254 254 254 59 39 39 39 39 82 82 82 183 183 183 183 331
 331 331 331 331 326 204 204 204 151 151 151 254 254 254 254 254 59 59 59 39
 39 82 82 82 82 183 183 183 183 183 331 331 331 326 326 326 151 151 151 171
 171 169 169 254 254 254 59 59 59 10 10 82 82 82 82 183 183 183 183 129
 186 186 186 326 326 326 326 151 171 171 171 171 169 109 109 109 59 59 59 10
 10 82 82 82 82 129 129 129 129 129 186 186 186 326 326 326 326 171 171 171
 171 171 109 109 109 109 59 59 10 10 10 27 55 55 55 129 129 129 129 129
 186 186 186 326 326 326 326 326 171 171 171 171 109 109 109 109 393 393 10 10
 27 27 55 55 55 129 129 129 129 129 31 31 326 326 326 326 326 224 224 224
 171 380 109 109 109 109 393 393 264 27 27 27 55 55 55 55 129 384 129 129
 31 31 367 326 326 326 326 224 224 224 380 380 380 109 109 109 393 343 343 27
 27 27 55 55 55 55 31 31 31 31 31 31 367 367 326 326 224 224 224 224
 380 380 380 380 109 343 343 343 343 343 138 138 138 55 55 31 31 31 31 31
 31 392 392 392 267 267 267 226 226 226 226 226 380 355 355 343 343 343 116 116
 116 138 138 138 344 344 344 31 31 31 31 313 313 267 267 267 267 226 226 226
 226 226 335 179 179 179 343 343 116 116 116 138 138 138 344 344 344 31 31 31
 313 313 313 313 267 267 191 191 191 191 335 335 335 179 179 179 179 343 116 116
 138 138 138 138 344 344 344 31 31 31 313 313 313 313 70 70 191 191 191 335
 335 335 335 335 179 179 179 179 255 255 255 255 255 255 255 344 344 315 315 313
 313 313 313 313 70 70 70 191 191 191 335 335 335 335 179 179 179 179 255 255
 255 255 255 255 255 255 257 257 387 387 387 105 105 105 70 70 70 70 191 64
 335 335 335 12 12 12 12 12 255 255 255 255 255 255 255 289 289 257 387 387
 105 105 105 105 70 70 70 70 303 64 64 335 40 40 40 40 40 40 255 255
 255 255 255 255 289 289 289 257 387 387 105 105 105 105 105 70 303 303 303 3
 237 237 337 337 40 40 40 40 255 255 255 255 255 255 289 289 289 289 105 105
 105 105 105 105 105 303 303 303 303 303 237 237 337 337 337 40 40 40 180 180
 180 255 255 255 289 289 289 289 105 105 105 105 105 105 105 303 303 303 303 303
 237 237 337 337 337 337 40 180 180 180 180 180 255 28 28 28 28 28 105 105
 228 105 105 105 108 303 303 303 303 303 237 237 337 337 337 190 190 180 180 180
 180 360 360 28 28 28 28 28 228 228 228 228 399 399 108 108 303 303 303 3
 237 237 337 337 190 190 190 180 180 180 323 360 360 28 28 28 28 28 228 228