# vtk DataFile Version 2.0
Data set from IO Version 6.4.197.9a0dee2
ASCII

DATASET RECTILINEAR_GRID
DIMENSIONS 31 31 31
X_COORDINATES 31 float
-5.500000 5.500000 16.500000 27.500000 38.500000 49.500000 60.500000 71.500000 82.500000 93.500000 104.500000 115.500000 126.500000 137.500000 148.500000 159.500000 170.500000 181.500000 192.500000 203.500000 214.500000 
225.500000 236.500000 247.500000 258.500000 269.500000 280.500000 291.500000 302.500000 313.500000 324.500000 
Y_COORDINATES 31 float
-5.500000 5.500000 16.500000 27.500000 38.500000 49.500000 60.500000 71.500000 82.500000 93.500000 104.500000 115.500000 126.500000 137.500000 148.500000 159.500000 170.500000 181.500000 192.500000 203.500000 214.500000 
225.500000 236.500000 247.500000 258.500000 269.500000 280.500000 291.500000 302.500000 313.500000 324.500000 
Z_COORDINATES 31 float
-5.500000 5.500000 16.500000 27.500000 38.500000 49.500000 60.500000 71.500000 82.500000 93.500000 104.500000 115.500000 126.500000 137.500000 148.500000 159.500000 170.500000 181.500000 192.500000 203.500000 214.500000 
225.500000 236.500000 247.500000 258.500000 269.500000 280.500000 291.500000 302.500000 313.500000 324.500000 
CELL_DATA 27000
SCALARS FeatureIds int 1
LOOKUP_TABLE default
 45 45 38 38 38 38 38 356 356 356 356 356 356 356 356 222 222 222 222 222
 339 339 339 339 384 384 84 84 45 45 45 45 38 38 38 38 216 216 356 356
 356 356 356 356 356 356 222 222 222 222 339 339 339 384 384 384 384 45 45 45
 45 45 38 38 216 216 216 216 356 356 356 356 356 356 356 356 222 222 222 187
 187 187 187 187 384 384 384 45 45 45 45 45 38 38 216 216 216 216 356 356
 356 356 356 356 356 220 220 220 220 187 187 187 187 187 384 384 384 45 45 45
 45 45 38 216 216 216 216 299 299 356 356 356 356 356 220 220 220 220 220 187
 187 187 187 187 187 255 255 45 45 45 45 45 212 212 216 299 299 299 299 299
 356 356 356 220 220 220 220 220 220 187 187 187 187 187 312 255 255 255 255 255
 45 212 212 212 212 299 299 299 299 299 299 356 356 220 220 220 220 220 220 187
 187 187 312 312 312 312 255 255 255 255 368 212 212 212 212 299 299 299 299 299
 299 299 242 220 220 220 220 220 55 256 256 256 312 312 312 312 255 255 255 255
 368 368 368 212 212 299 299 299 299 299 242 242 242 242 220 137 220 137 256 256
 256 256 256 312 312 312 255 255 255 255 368 368 368 212 212 299 299 299 299 242
 242 242 242 242 137 137 137 137 137 256 256 256 256 312 312 312 255 255 255 255
 368 368 368 351 351 351 351 299 299 242 242 242 242 242 137 137 137 91 91 91
 243 243 258 258 258 371 371 255 255 143 205 177 177 351 351 351 351 351 351 242
 242 242 242 242 137 137 137 91 91 91 243 243 258 258 258 371 371 205 205 143
 205 181 181 351 351 351 351 351 351 242 242 242 242 242 242 137 91 91 91 262
 262 262 262 258 258 371 371 205 205 205 205 181 181 351 351 351 351 351 351 242
 242 242 150 150 150 137 91 91 91 262 262 262 262 262 258 371 205 205 205 205
 205 181 181 351 351 351 351 351 351 351 74 74 74 150 150 150 83 83 262 262
 262 262 262 262 262 362 362 362 205 205 205 181 181 351 351 351 351 351 351 74
 74 74 74 74 74 74 83 331 331 331 87 87 87 290 290 290 362 362 362 205
 246 246 246 351 351 351 351 351 12 74 74 74 74 74 74 74 331 331 331 331
 331 87 87 290 290 290 290 362 362 205 246 246 246 381 381 12 12 12 12 12
 74 74 74 74 74 358 358 358 331 331 331 331 146 290 290 290 290 290 362 246
 246 246 381 381 381 12 12 12 12 12 74 74 37 37 37 358 358 358 358 331
 331 146 146 146 290 290 290 290 290 193 381 381 381 381 381 12 12 12 12 12
 12 74 37 37 37 358 358 358 358 358 331 146 146 146 290 290 290 290 193 193
 280 280 381 381 307 307 12 12 12 12 18 18 18 37 37 358 358 358 358 358
 146 146 146 146 146 146 290 193 193 193 280 280 280 381 307 307 307 12 12 12
 18 18 18 37 37 358 358 358 358 358 136 136 136 136 136 136 136 193 193 193
 280 280 280 381 307 307 307 307 12 112 112 112 112 112 302 324 324 324 324 324
 136 136 136 136 136 136 244 244 244 193 280 280 280 381 307 307 307 35 35 35
 112 112 112 112 112 324 324 324 324 324 136 136 136 136 136 217 244 244 244 244
 280 280 76 76 76 307 35 35 35 35 112 112 112 112 112 324 324 324 324 324
 136 136 136 136 136 374 374 244 244 244 280 76 76 76 76 76 35 35 35 35
 72 72 72 72 198 198 324 324 324 339 339 339 136 136 136 374 374 374 244 244
 76 76 76 76 76 76 35 35 35 35 72 72 72 72 72 198 222 222 339 339
 339 339 339 339 339 374 374 374 374 84 45 76 76 76 76 76 35 35 35 72
 72 72 72 72 72 222 222 222 222 339 339 339 339 339 339 339 84 84 84 84
 45 45 76 76 76 76 35 35 35 72 72 72 72 72 72 222 222 222 222 339
 339 339 339 339 339 339 84 84 84 84 45 45 45 76 76 76 35 35 35 72
 356 356 356 356 356 222 222 222 222 222 339 339 339 339 339 84 84 84 84 45
 45 45 38 38 38 38 353 353 356 356 356 356 356 356 356 65 65 65 65 65
 65 339 339 339 145 145 84 84 84 45 45 45 38 38 38 38 353 353 356 356
 356 356 356 356 356 356 65 65 65 65 65 187 339 145 145 145 145 45 45 45
 45 45 38 38 38 216 216 353 356 356 356 356 356 356 356 329 329 65 65 187
 187 187 187 187 145 145 145 45 45 45 45 45 38 38 216 216 216 82 356 356
 356 356 356 356 356 329 329 329 187 187 187 187 187 187 145 145 145 45 45 45
 45 45 212 212 216 216 216 299 299 356 356 356 356 356 356 220 220 220 187 187
 187 187 187 187 187 145 255 45 45 45 45 241 212 212 212 299 299 299 299 299
 284 284 284 356 220 220 220 220 55 187 187 187 187 187 187 255 255 255 255 255
 241 241 212 212 212 299 299 299 299 299 284 284 284 220 220 220 220 55 55 187
 187 187 187 187 312 312 255 255 255 255 241 241 212 212 212 299 299 299 299 299
 299 284 284 240 220 220 55 55 55 55 256 256 312 312 312 312 255 255 255 255
 368 368 368 212 212 299 299 299 299 299 242 242 242 240 137 137 55 55 55 256
 256 256 256 312 312 312 255 255 255 255 368 368 368 212 212 299 299 299 299 242
 242 242 242 240 137 137 137 137 55 256 256 256 256 312 312 312 255 255 255 368
 368 368 368 351 351 351 351 299 299 242 242 242 242 242 137 137 137 137 91 243
 243 243 243 100 100 371 100 100 205 205 205 181 181 351 351 351 351 351 351 242
 242 242 242 242 137 137 137 137 91 243 243 243 243 100 371 371 371 205 205 205
 205 181 181 351 351 351 351 351 351 242 242 242 242 150 150 137 137 137 91 243
 243 243 243 100 100 371 100 205 205 205 205 181 181 351 351 332 351 351 351 120
 120 120 150 150 150 137 83 83 262 262 262 262 262 100 100 100 205 205 205 205
 205 181 181 351 351 351 351 351 351 351 74 74 150 150 150 83 83 83 262 262
 262 262 262 262 100 100 205 205 205 205 205 181 181 351 351 351 351 351 351 131
 74 74 74 74 83 83 83 83 83 331 87 87 87 290 290 290 290 362 205 205
 246 246 246 351 351 351 351 351 131 131 74 74 74 74 83 83 83 83 331 331
 254 254 146 290 290 290 290 290 362 205 246 246 246 246 381 12 12 12 131 131
 131 74 74 74 83 83 83 83 331 331 254 254 146 146 290 290 290 290 290 246
 246 246 246 381 381 12 12 12 12 131 131 74 37 37 83 83 358 358 358 254
 254 254 146 146 290 290 290 290 290 246 280 280 381 381 307 307 12 12 12 12
 12 18 37 37 302 358 358 358 358 254 254 146 146 146 146 290 290 290 193 193
 280 280 280 381 307 307 307 12 12 30 18 18 18 302 302 302 358 358 358 358
 146 146 146 146 146 146 146 193 193 193 280 280 280 307 307 307 307 307 30 30
 18 18 18 302 302 302 302 358 358 358 146 146 136 136 136 136 244 244 244 280
 280 280 280 307 307 307 307 307 30 30 18 18 18 302 302 302 302 250 324 68
 136 136 136 136 136 217 244 244 244 280 280 280 280 307 307 307 307 35 35 35
 112 112 112 198 198 250 250 250 250 68 136 136 136 136 136 217 244 244 244 244
 280 280 76 76 307 307 35 35 35 288 288 112 112 198 198 198 250 250 250 68
 136 136 136 136 136 217 244 244 244 244 76 76 76 76 76 76 35 35 288 288
 72 72 72 198 198 198 250 250 250 68 136 136 136 136 136 136 374 244 244 244
 76 76 76 76 76 76 35 35 35 72 72 72 72 72 198 198 198 250 65 339
 339 339 339 339 339 374 374 374 84 84 76 76 76 76 76 76 271 271 271 72
 72 72 72 72 198 198 65 65 65 339 339 339 339 339 339 339 84 84 84 84
 84 76 76 76 76 76 271 271 271 72 72 72 72 72 198 65 65 65 65 65
 339 339 339 339 339 84 84 84 84 84 45 45 76 76 76 76 271 271 271 72
 72 72 72 356 356 65 65 65 65 65 339 339 339 339 339 84 84 84 84 84
 45 45 231 231 231 353 353 353 353 353 356 356 356 356 356 65 65 65 65 65
 65 339 339 145 145 145 145 84 84 84 45 45 231 231 231 353 353 353 353 353
 356 356 158 356 356 329 65 65 65 65 65 187 145 145 145 145 145 145 45 45
 45 45 231 231 231 353 353 353 353 353 356 356 356 356 329 329 329 188 65 187
 187 187 187 145 145 145 145 145 45 45 45 45 231 231 231 82 82 82 82 353
 284 356 356 356 329 329 329 188 188 187 187 187 187 187 145 145 145 145 45 45
 45 241 241 212 316 316 6 6 6 284 284 284 284 284 329 329 329 188 188 187
 187 187 187 187 187 145 145 255 45 45 241 241 241 212 212 6 6 6 6 284
 284 284 284 284 220 55 55 55 55 187 187 187 187 187 187 187 255 255 255 255
 241 241 241 212 212 299 299 6 299 284 284 284 284 284 220 55 55 55 55 55
 187 187 187 187 187 255 255 255 255 255 241 241 241 212 212 299 299 299 299 284
 284 284 284 284 55 55 55 55 55 55 187 256 187 312 312 255 255 255 255 241
 241 241 241 212 212 299 299 299 299 299 242 242 240 240 240 55 55 55 55 55
 256 256 312 312 312 312 255 255 255 255 368 368 368 212 212 351 299 299 299 242
 242 242 240 240 240 137 137 55 55 55 256 256 100 100 100 100 100 255 255 368
 368 368 368 351 351 351 351 351 242 242 242 242 242 240 137 137 137 137 55 243
 243 243 243 100 100 100 100 100 100 205 205 181 181 351 351 351 351 351 351 242
 242 242 242 242 137 137 137 137 137 243 243 243 243 100 100 100 100 100 205 205
 205 181 181 351 351 351 351 351 351 120 120 120 120 150 150 137 137 137 137 243
 243 243 243 100 100 100 100 205 205 205 205 181 181 351 351 351 351 351 351 120
 120 120 120 150 150 83 83 83 83 262 61 61 262 100 100 100 100 205 205 205
 205 181 181 351 351 351 351 351 351 120 120 120 120 150 83 83 83 83 83 61
 61 61 61 100 100 100 185 185 205 205 205 181 181 351 351 351 351 351 131 131
 120 120 120 83 83 83 83 83 83 61 61 61 61 146 290 290 185 185 185 205
 246 246 246 351 351 351 351 131 131 131 131 131 74 83 83 83 83 83 83 254
 254 254 146 146 290 290 290 185 185 205 246 246 246 246 351 351 12 131 131 131
 131 131 74 83 83 83 83 83 83 254 254 254 146 146 290 290 290 290 185 246
 246 246 246 381 307 12 12 12 131 131 131 131 131 83 83 83 83 83 83 254
 254 254 146 146 146 290 290 290 290 178 280 280 280 307 307 307 12 12 30 30
 30 30 18 302 302 302 83 83 358 254 254 254 146 146 146 146 290 290 178 178
 280 280 280 307 307 307 307 30 30 30 30 18 18 302 302 302 302 302 358 254
 146 146 146 146 146 146 146 146 178 178 280 280 280 307 307 307 307 30 30 30
 30 18 18 302 302 302 302 302 302 68 146 146 146 146 146 146 146 244 244 280
 280 280 280 307 307 307 307 307 30 30 30 18 18 302 302 302 302 250 68 68
 68 136 136 136 136 136 244 244 244 244 280 280 280 307 307 307 307 307 30 30
 30 112 198 198 198 250 250 250 68 68 68 136 136 136 136 217 244 244 244 244
 280 280 76 76 76 307 307 288 288 288 288 288 198 198 198 198 250 250 250 68
 68 136 136 136 136 136 244 244 244 244 76 76 76 76 76 76 76 288 288 288
 288 72 198 198 198 198 250 250 250 68 68 136 136 136 136 136 374 244 244 244
 76 76 76 76 76 76 271 271 271 288 72 72 72 198 198 198 198 250 65 65
 339 339 339 339 339 136 374 84 84 84 76 76 76 76 76 76 271 271 271 271
 72 72 72 72 198 198 65 65 65 65 339 339 339 339 339 339 84 84 84 84
 84 76 76 76 76 76 271 271 271 271 72 72 72 72 198 65 65 65 65 65
 339 339 339 339 339 145 84 84 84 84 84 84 76 76 76 180 271 271 271 271
 72 72 72 72 65 65 65 65 65 65 65 339 339 339 145 145 84 84 84 84
 45 231 231 231 231 353 353 353 353 353 353 158 158 158 158 65 65 65 65 65
 65 65 145 145 145 145 145 145 84 84 45 231 231 231 231 353 353 353 353 353
 353 158 158 158 329 329 65 65 65 65 65 187 145 145 145 145 145 145 45 45
 45 231 231 231 231 353 353 353 353 353 353 158 158 329 329 329 329 188 188 65
 187 187 187 145 145 145 145 145 45 45 45 45 231 231 231 316 82 82 82 353
 284 284 284 329 329 329 329 188 188 187 187 187 187 187 145 145 145 145 50 45
 241 241 241 316 316 316 82 6 6 284 284 284 284 284 329 329 329 188 188 187
 187 187 187 187 224 224 50 50 50 50 241 241 241 316 316 316 6 6 6 284
 284 284 284 284 329 329 55 55 55 187 187 187 187 224 224 224 50 50 50 50
 241 241 241 316 316 316 316 6 6 284 284 284 284 284 284 55 55 55 55 55
 187 187 187 224 224 224 255 255 255 241 241 241 241 241 316 316 316 316 299 284
 284 284 284 240 240 55 55 55 55 55 117 117 117 224 224 255 255 255 255 241
 241 241 241 241 316 316 316 299 299 284 284 225 240 240 240 55 55 55 55 55
 117 117 117 117 100 100 255 255 255 241 241 241 241 241 316 316 316 52 52 242
 225 225 240 240 240 240 55 55 55 55 117 117 100 100 100 100 100 100 255 241
 368 368 368 351 351 351 351 351 52 242 242 225 240 240 240 137 137 137 55 55
 243 243 100 100 100 100 100 100 100 100 205 181 351 351 351 351 351 351 351 120
 120 120 120 240 240 137 137 137 137 243 243 243 100 100 100 100 100 100 100 205
 205 181 181 351 351 351 351 351 351 120 120 120 120 120 150 137 137 83 83 252
 243 243 100 100 100 100 100 100 205 205 205 181 181 351 351 351 351 351 351 120
 120 120 120 120 83 83 83 83 83 61 61 61 61 100 100 100 100 100 205 205
 205 181 181 351 351 351 351 351 351 120 120 120 120 120 83 83 83 83 83 61
 61 61 61 61 127 127 185 185 185 205 205 181 351 351 351 351 351 351 131 131
 120 120 120 83 83 83 83 83 83 61 61 61 61 61 127 127 185 185 185 205
 246 246 246 351 351 351 351 131 131 131 131 131 120 83 83 83 83 83 83 61
 61 61 61 146 146 290 185 185 185 185 246 246 246 246 351 351 131 131 131 131
 131 131 131 83 83 83 83 83 83 254 254 254 146 146 146 146 290 290 178 178
 178 246 246 381 307 283 131 131 131 131 131 131 131 83 83 83 83 83 83 254
 254 254 146 146 146 146 146 178 178 178 178 280 280 307 307 307 12 30 30 30
 30 30 327 327 302 302 83 83 83 254 254 254 146 146 146 146 146 178 178 178
 178 280 280 307 307 307 307 30 30 30 30 30 327 327 302 302 302 302 302 254
 146 146 146 146 146 146 146 178 178 178 280 280 280 307 307 307 307 30 30 30
 30 30 327 327 302 302 302 302 68 68 146 146 146 146 146 146 146 308 178 178
 280 110 110 307 307 307 307 30 30 30 30 30 327 327 302 302 302 250 68 68
 68 146 146 136 136 136 308 308 308 308 110 110 110 110 307 307 307 202 30 30
 30 30 198 198 198 198 250 250 68 68 68 136 136 136 136 136 308 308 308 308
 110 110 110 76 248 248 248 288 288 288 288 288 198 198 198 198 250 250 68 68
 68 136 136 136 136 136 308 308 308 308 110 110 76 76 248 248 248 288 288 288
 288 288 198 198 198 198 198 250 250 68 68 136 136 136 136 136 308 308 308 308
 130 130 76 76 76 248 248 271 271 288 288 72 198 198 198 198 198 65 65 65
 339 339 339 339 339 136 84 84 84 84 130 130 76 76 76 248 271 271 271 271
 72 72 72 198 198 198 65 65 65 65 65 339 339 339 339 145 84 84 84 84
 130 130 76 76 76 180 271 271 271 271 72 72 72 72 198 65 65 65 65 65
 65 339 339 339 145 145 84 84 84 84 84 130 76 231 180 180 353 353 353 271
 72 380 72 72 65 65 65 65 65 65 65 65 145 145 145 145 145 84 84 84
 45 231 231 231 231 180 353 353 353 353 380 380 158 158 65 65 65 65 65 65
 65 65 145 145 145 145 145 333 333 333 45 231 231 231 231 353 353 353 353 353
 353 158 158 158 329 65 65 65 65 65 65 65 145 145 145 145 145 333 333 333
 45 231 231 231 231 353 353 353 353 353 353 158 234 234 329 329 329 188 65 65
 187 187 187 145 145 145 145 333 333 333 45 316 316 316 316 316 82 82 82 353
 284 284 234 234 329 329 329 188 188 187 187 187 187 224 145 145 145 50 50 50
 241 316 316 316 316 316 316 82 82 284 284 284 284 234 329 329 329 329 188 187
 187 187 224 224 224 224 50 50 50 50 241 241 316 316 316 316 316 6 6 284
 284 284 284 284 329 329 55 55 55 187 187 187 224 224 224 224 50 50 50 50
 241 241 241 316 316 316 316 316 6 284 284 284 284 284 171 171 55 55 55 117
 117 117 224 224 224 224 50 50 50 50 241 241 241 316 316 316 316 316 316 284
 284 284 284 284 171 171 55 55 55 117 117 117 117 224 224 224 50 50 50 241
 241 241 241 316 316 316 316 316 52 225 225 225 225 240 171 171 55 55 55 117
 117 117 117 117 224 100 255 255 255 241 241 241 241 316 316 316 316 52 52 52
 225 225 225 240 240 240 55 55 55 117 117 117 117 100 100 100 100 100 148 241
 59 59 241 316 316 316 52 52 52 52 225 225 240 240 240 137 137 55 55 117
 117 117 63 63 100 100 100 100 148 148 59 59 59 351 351 351 351 52 52 120
 120 120 120 240 240 137 137 137 252 252 252 252 63 63 100 100 100 100 100 205
 205 59 59 351 351 351 351 351 120 120 120 120 120 120 120 83 83 83 252 252
 252 252 63 63 100 100 100 100 100 205 205 181 181 351 351 351 351 351 120 120
 120 120 120 120 83 83 83 83 83 252 61 61 61 61 100 100 100 100 205 205
 205 58 58 351 351 351 351 351 120 120 120 120 120 120 83 83 83 83 83 61
 61 61 61 61 127 127 127 185 185 205 57 57 57 351 351 351 351 351 131 131
 120 120 120 83 83 83 83 83 83 61 61 61 61 61 127 127 127 185 185 185
 57 57 57 57 351 351 283 131 131 131 131 131 142 83 83 83 83 83 83 61
 61 61 61 61 127 127 127 185 185 185 57 57 57 57 283 283 283 283 131 131
 131 131 142 142 83 83 83 83 83 61 61 61 146 146 146 146 146 178 178 178
 178 57 57 57 283 283 283 283 131 131 131 131 142 142 83 83 83 83 83 254
 254 254 146 146 146 146 146 178 178 178 178 178 57 57 283 283 283 283 283 30
 30 327 327 327 327 83 83 83 83 254 254 146 146 146 146 146 146 178 178 178
 178 178 280 307 307 283 283 283 30 30 30 327 327 327 327 302 302 302 302 254
 146 146 146 146 146 146 146 178 178 178 178 110 110 110 307 307 202 202 30 30
 30 327 327 327 327 302 302 302 68 68 146 146 146 146 146 146 308 308 178 178
 110 110 110 110 307 307 202 202 30 30 30 327 327 327 327 302 302 302 68 68
 68 146 146 146 146 146 308 308 308 308 110 110 110 110 248 248 202 202 202 30
 30 327 327 327 198 198 250 250 68 68 68 344 146 136 136 308 308 308 308 308
 110 110 110 248 248 248 248 202 288 288 288 288 198 198 198 198 77 77 77 68
 68 344 136 136 136 308 308 308 308 308 110 110 110 248 248 248 248 248 288 288
 288 288 198 198 198 198 77 77 77 77 68 136 136 136 136 308 308 308 308 308
 130 130 130 248 248 248 248 271 260 288 288 288 198 198 198 198 198 77 77 77
 77 339 305 305 305 305 308 308 308 130 130 130 130 130 248 248 248 271 271 271
 271 380 198 198 198 198 65 65 65 65 65 339 305 305 305 305 305 84 84 130
 130 130 130 130 180 180 180 271 271 271 380 380 380 198 198 65 65 65 65 65
 65 65 305 305 305 145 145 84 84 84 130 130 130 180 180 180 180 353 353 353
 380 380 380 380 65 65 65 65 65 65 65 65 145 145 145 145 145 333 84 84
 267 231 231 231 180 180 180 353 353 353 380 380 380 310 310 310 65 65 65 65
 65 309 309 145 145 145 333 333 333 333 267 267 231 231 180 180 180 353 353 353
 353 380 234 234 234 310 268 65 65 65 65 309 309 145 145 145 333 333 333 333
 267 231 231 231 316 316 353 353 353 353 353 234 234 234 234 329 268 268 268 268
 309 309 309 145 145 145 333 333 333 333 267 316 316 316 316 316 316 316 82 353
 284 234 234 234 234 329 268 268 268 268 187 187 224 224 224 145 50 50 50 50
 241 316 316 316 316 316 316 316 316 284 284 284 234 234 234 329 268 268 268 268
 187 224 224 224 224 224 50 50 50 50 241 316 316 316 316 316 316 316 316 284
 284 284 284 234 234 171 268 268 268 268 117 224 224 224 224 224 50 50 50 50
 241 241 316 316 316 316 316 316 316 284 284 284 284 171 171 171 171 55 55 117
 117 117 224 224 224 224 50 50 50 50 241 241 316 316 316 316 316 316 316 316
 284 225 225 171 171 171 171 55 55 117 117 117 117 224 224 224 50 50 50 50
 241 241 316 316 316 316 316 316 52 52 225 225 225 171 171 171 171 55 55 117
 117 117 117 117 224 224 148 148 148 241 59 59 59 316 316 316 52 52 52 52
 225 225 225 240 240 171 171 55 55 117 117 117 117 117 100 100 148 148 148 148
 59 59 59 59 316 316 52 52 52 52 225 225 225 240 240 19 19 55 252 252
 117 117 63 63 63 100 100 148 148 148 59 59 59 59 351 52 52 52 52 52
 225 225 225 19 19 19 19 252 252 252 252 252 63 63 63 100 100 148 148 148
 59 59 59 59 351 321 351 52 52 120 120 120 120 120 19 19 83 252 252 252
 252 252 63 63 63 100 100 100 148 148 58 59 59 321 321 321 321 321 321 120
 120 120 120 120 83 83 83 83 252 252 252 252 61 61 127 127 127 100 148 58
 58 58 58 321 321 321 321 321 321 157 157 157 157 83 83 83 83 83 83 61
 61 61 61 61 127 127 127 127 185 58 57 57 57 321 321 321 321 321 321 131
 157 157 157 83 83 83 83 83 83 61 61 61 61 61 127 127 127 127 185 185
 57 57 57 57 321 321 321 321 131 131 157 157 142 142 83 83 83 83 83 61
 61 61 61 61 127 127 127 127 185 178 57 57 57 57 57 283 283 283 283 131
 131 131 142 142 142 83 83 83 83 61 61 61 61 146 146 127 127 200 178 178
 178 57 57 57 283 283 283 283 283 283 160 81 81 142 83 83 83 83 376 376
 61 146 146 146 146 146 200 200 178 178 178 178 57 57 283 283 283 283 283 283
 160 160 81 81 327 83 376 376 376 376 254 146 146 146 146 146 200 200 178 178
 178 178 178 317 317 283 283 283 283 160 160 160 327 327 327 327 376 376 376 344
 344 146 146 146 146 146 200 178 178 178 178 110 110 110 317 317 202 202 202 30
 160 327 327 327 327 327 302 376 376 344 344 344 146 146 146 146 308 308 178 178
 110 110 110 110 317 317 202 202 202 30 30 327 327 327 327 327 302 302 344 344
 344 344 344 146 146 308 308 308 308 308 110 110 110 110 248 248 202 202 202 30
 30 327 327 327 327 198 77 77 77 344 344 344 344 344 136 308 308 308 308 308
 110 110 110 248 248 248 248 202 202 288 288 288 198 198 198 198 77 77 77 77
 344 344 344 344 308 308 308 308 308 110 110 110 110 248 248 248 248 248 288 288
 288 288 42 198 198 198 77 77 77 77 344 344 344 305 305 308 308 308 308 110
 130 130 130 248 248 248 248 248 260 288 288 288 198 198 198 198 77 77 77 77
 77 305 305 305 305 305 308 308 67 67 130 130 130 130 248 248 248 271 271 271
 271 380 380 198 198 198 65 65 65 65 65 305 305 305 305 305 305 67 67 67
 130 130 130 180 180 180 180 271 271 271 380 380 380 380 310 310 65 65 65 65
 65 65 305 305 305 305 145 67 67 67 130 130 130 180 180 180 180 353 353 380
 380 380 380 380 310 310 65 65 65 65 65 65 305 305 145 145 145 333 67 67
 267 267 180 180 180 180 180 353 353 353 380 380 380 310 310 310 310 310 65 65
 309 309 309 1 145 145 333 333 333 333 267 267 267 180 180 180 180 353 353 353
 380 380 234 234 310 310 268 268 268 268 309 309 309 145 145 145 333 333 333 333
 267 267 316 316 316 316 316 316 353 353 234 234 234 234 234 268 268 268 268 268
 309 309 309 145 145 145 333 333 333 333 267 316 316 316 316 316 316 316 316 167
 234 234 234 234 234 268 268 268 268 268 309 309 224 224 224 224 50 50 50 50
 316 316 316 316 316 316 316 316 167 167 167 234 234 234 234 268 268 268 268 268
 187 224 224 224 224 224 50 50 50 50 316 316 316 316 316 316 316 316 167 167
 167 284 234 234 234 268 268 268 268 320 117 224 224 224 224 224 50 50 50 50
 241 316 316 316 316 316 316 316 316 167 167 284 8 234 171 171 171 268 320 320
 117 117 224 224 224 224 50 50 50 50 241 316 316 316 316 316 316 316 316 167
 167 225 225 171 171 171 171 320 320 320 117 117 117 224 224 224 50 50 50 50
 241 241 316 316 316 316 316 52 52 52 225 225 225 225 171 171 171 55 320 320
 117 117 117 117 224 148 148 148 148 148 59 59 59 316 316 316 52 52 52 52
 225 225 225 240 19 19 19 19 320 320 117 117 117 117 100 148 148 148 148 148
 59 59 59 59 316 52 52 52 52 52 225 225 225 19 19 19 19 19 252 320
 117 117 63 63 63 148 148 148 148 148 59 59 59 59 59 52 52 52 52 52
 52 225 225 19 19 19 19 19 252 252 252 252 63 63 63 100 148 148 148 148
 59 59 59 59 321 321 321 52 52 52 52 120 157 19 19 19 19 19 252 252
 252 252 252 63 63 100 148 148 148 59 58 58 59 321 321 321 321 321 321 157
 157 157 157 157 19 19 19 83 252 252 252 252 61 61 127 127 127 127 148 58
 58 58 58 321 321 321 321 321 321 157 157 157 157 157 83 83 83 83 94 94
 61 61 61 61 127 127 127 127 127 58 58 58 58 321 321 321 321 321 321 157
 157 157 157 157 83 83 83 83 94 94 61 61 61 61 127 127 127 127 127 58
 57 57 57 321 321 321 321 321 321 157 157 157 157 142 83 83 83 83 94 94
 61 61 61 61 127 127 127 127 127 178 57 57 57 57 283 283 283 283 283 283
 157 157 81 142 142 83 83 376 376 376 61 61 61 61 127 127 200 200 200 178
 178 57 57 57 283 283 283 283 283 283 160 81 81 81 81 83 376 376 376 376
 61 61 146 146 146 200 200 200 200 178 178 178 57 283 283 283 283 283 283 283
 160 160 81 81 81 376 376 376 376 376 376 146 146 146 146 200 200 200 200 178
 178 178 178 317 317 283 283 283 283 160 160 160 81 81 81 376 376 376 376 344
 344 344 344 146 146 200 200 200 200 178 110 110 110 317 317 317 317 202 202 160
 160 160 327 327 327 327 376 376 376 344 344 344 344 146 146 146 308 200 200 178
 110 110 110 317 317 317 202 202 202 160 160 160 327 327 327 327 376 376 344 344
 344 344 344 344 146 308 308 308 308 110 110 110 110 110 317 317 202 202 202 160
 160 327 327 327 327 327 77 77 77 344 344 344 344 344 5 308 308 308 308 110
 110 110 110 248 248 248 248 202 202 288 288 42 42 42 42 77 77 77 77 344
 344 344 344 5 5 308 308 308 308 110 110 110 110 248 248 248 248 248 288 288
 288 42 42 42 42 77 77 77 77 77 344 344 344 5 5 308 308 308 308 110
 130 130 130 248 248 248 248 248 260 288 288 42 42 42 42 77 77 77 77 77
 77 305 305 305 305 305 308 67 67 67 130 130 130 130 248 248 248 248 271 271
 380 380 42 310 310 310 310 77 77 65 65 1 305 305 305 305 305 67 67 67
 67 130 130 180 180 180 180 180 271 271 380 380 380 310 310 310 310 310 65 65
 65 1 1 305 305 305 305 67 67 67 67 130 130 180 180 180 180 353 353 380
 380 380 380 310 310 310 310 310 65 65 65 1 1 1 305 305 145 333 67 67
 267 267 267 156 156 156 156 156 204 204 204 380 380 310 310 310 310 310 268 268
 309 309 309 1 1 145 333 333 333 267 267 267 267 267 156 156 156 156 204 204
 204 204 373 373 310 310 268 268 268 268 309 99 309 309 145 145 333 333 333 267
 267 267 267 267 156 156 156 156 204 204 204 373 373 373 373 268 268 268 268 268
 309 309 309 309 145 145 333 333 333 267 267 267 267 316 316 316 316 316 316 167
 373 373 373 373 373 268 268 268 268 268 309 309 295 295 295 295 36 36 36 36
 267 267 316 316 316 316 316 316 167 167 167 373 373 373 373 268 268 268 268 268
 309 224 295 295 295 295 36 36 36 36 316 316 316 316 316 316 316 316 167 167
 167 167 373 373 8 268 268 268 268 320 320 224 224 295 295 295 36 36 36 36
 277 277 316 316 316 316 316 316 167 167 167 8 8 8 8 268 268 268 320 320
 320 117 224 295 295 295 36 50 50 50 277 277 316 316 316 316 316 323 323 323
 167 8 8 8 8 171 171 320 320 320 320 117 117 295 295 295 36 50 50 236
 236 277 277 316 316 316 316 52 52 52 52 225 8 8 8 171 171 320 320 320
 320 117 117 117 295 148 148 148 148 236 59 59 59 59 316 316 52 52 52 52
 52 225 225 8 19 19 19 19 320 320 320 117 117 117 100 148 148 148 148 236
 59 59 59 59 316 52 52 52 52 52 52 225 225 19 19 19 19 19 320 320
 320 252 63 63 63 148 148 148 148 148 59 59 59 59 59 52 52 52 52 52
 52 52 19 19 19 19 19 19 252 252 252 252 252 63 141 148 148 148 148 59
 59 59 59 59 321 321 321 52 52 52 52 157 19 19 19 19 19 19 252 252
 252 252 252 141 141 141 148 148 148 59 58 58 59 321 321 321 321 321 321 157
 157 157 157 157 275 275 275 275 252 252 252 252 61 61 141 141 141 141 148 58
 58 58 58 321 321 321 321 321 321 157 157 157 157 157 275 275 275 94 94 94
 94 61 61 61 127 127 127 127 58 58 58 58 321 321 321 321 321 321 321 157
 157 157 157 157 275 275 275 94 94 94 94 61 61 61 127 127 127 127 357 58
 57 57 57 321 321 321 321 321 321 157 157 157 157 157 83 83 83 94 94 94
 94 61 61 61 127 127 127 127 200 178 57 57 57 321 321 321 283 283 283 283
 157 157 81 81 81 81 376 376 376 94 94 61 61 61 127 200 200 200 200 178
 178 57 57 283 283 283 283 283 283 283 160 160 81 81 81 81 376 376 376 376
 94 61 146 146 146 200 200 200 200 178 178 161 161 283 283 283 283 283 283 160
 160 160 81 81 81 376 376 376 376 376 376 344 146 146 146 200 200 179 200 200
 178 178 161 317 317 283 283 283 283 160 160 160 81 81 81 376 376 376 376 376
 344 344 344 344 146 200 200 200 200 200 110 110 110 317 317 317 317 283 283 160
 160 160 160 81 81 376 376 376 376 344 344 344 344 344 146 200 200 200 200 200
 110 110 110 317 317 317 317 202 202 160 160 160 327 327 327 327 376 376 344 344
 344 344 344 344 5 3 3 3 3 3 110 110 110 317 317 317 317 202 159 159
 159 159 327 327 327 42 342 342 344 344 344 344 344 5 5 5 3 3 3 3
 138 138 138 138 248 248 248 202 159 159 159 42 42 42 42 42 77 77 77 344
 344 344 344 5 5 5 3 3 3 3 138 138 138 138 248 248 248 363 363 159
 159 42 42 42 42 42 77 77 98 98 344 344 344 5 5 5 3 3 3 138
 138 138 138 363 363 363 363 363 363 159 42 42 42 42 42 42 98 98 98 98
 98 344 1 305 305 5 3 123 67 67 67 130 130 363 363 363 363 363 363 363
 42 42 42 310 310 310 310 98 98 98 1 1 1 1 305 305 123 123 67 67
 67 130 130 363 363 363 363 363 363 271 380 380 380 310 310 310 310 310 98 98
 1 1 1 1 1 305 123 67 67 67 267 267 267 180 180 180 180 363 353 380
 380 380 380 310 310 310 310 310 98 98 1 1 1 1 1 1 2 333 67 67
 267 267 267 156 156 156 156 156 204 204 204 204 310 310 310 310 310 310 268 268
 309 309 1 1 1 2 2 2 267 267 267 267 267 267 156 156 156 156 204 204
 204 204 373 373 373 310 268 268 268 268 309 309 309 1 1 2 2 333 267 267
 267 267 267 267 156 156 156 156 204 204 204 373 373 373 373 373 268 268 268 268
 309 309 309 295 295 295 36 36 267 267 267 267 267 267 316 156 156 156 204 204
 204 373 373 373 373 373 268 268 268 268 309 295 295 295 295 295 36 36 36 36
 267 267 316 316 316 316 316 316 167 167 167 373 373 373 373 268 268 268 268 268
 268 295 295 295 295 295 36 36 36 36 277 277 316 316 316 316 316 323 167 167
 167 373 373 373 8 268 268 268 268 320 320 295 295 295 295 295 36 36 36 36
 277 277 277 316 316 316 323 323 323 167 167 8 8 8 8 8 268 268 320 320
 320 295 295 295 295 295 36 36 36 36 277 277 277 316 316 316 323 323 323 323
 167 8 8 8 8 8 268 320 320 320 320 295 295 295 295 295 36 36 236 236
 236 277 277 277 316 323 323 323 323 52 292 292 8 8 8 8 70 70 320 320
 320 117 117 295 295 295 148 236 236 236 236 59 59 59 316 316 52 52 52 52
 292 292 292 8 8 19 70 70 70 320 320 117 117 295 295 148 148 148 236 236
 59 59 59 59 59 52 52 52 52 52 52 292 292 8 19 19 19 70 122 122
 122 122 63 141 141 148 148 148 148 236 59 59 59 59 59 52 52 52 52 48
 48 292 292 19 19 19 19 19 122 122 122 252 252 141 141 141 148 148 148 59
 59 59 59 59 321 321 321 52 52 48 48 48 157 19 19 19 19 19 122 122
 252 252 252 141 141 141 141 148 148 59 59 59 59 321 321 321 321 321 321 157
 157 157 157 275 275 275 275 275 252 252 252 252 61 141 141 141 141 141 357 357