# vtk DataFile Version 2.0
Data set from IO Version 6.4.197.9a0dee2
ASCII

DATASET RECTILINEAR_GRID
DIMENSIONS 31 31 31
X_COORDINATES 31 float
-5.500000 5.500000 16.500000 27.500000 38.500000 49.500000 60.500000 71.500000 82.500000 93.500000 104.500000 115.500000 126.500000 137.500000 148.500000 159.500000 170.500000 181.500000 192.500000 203.500000 214.500000 
225.500000 236.500000 247.500000 258.500000 269.500000 280.500000 291.500000 302.500000 313.500000 324.500000 
Y_COORDINATES 31 float
-5.500000 5.500000 16.500000 27.500000 38.500000 49.500000 60.500000 71.500000 82.500000 93.500000 104.500000 115.500000 126.500000 137.500000 148.500000 159.500000 170.500000 181.500000 192.500000 203.500000 214.500000 
225.500000 236.500000 247.500000 258.500000 269.500000 280.500000 291.500000 302.500000 313.500000 324.500000 
Z_COORDINATES 31 float
-5.500000 5.500000 16.500000 27.500000 38.500000 49.500000 60.500000 71.500000 82.500000 93.500000 104.500000 115.500000 126.500000 137.500000 148.500000 159.500000 170.500000 181.500000 192.500000 203.500000 214.500000 
225.500000 236.500000 247.500000 258.500000 269.500000 280.500000 291.500000 302.500000 313.500000 324.500000 
CELL_DATA 27000
SCALARS FeatureIds int 1
LOOKUP_TABLE default
 391 5 5 126 146 146 146 146 287 287 166 166 166 166 166 166 153 153 153 376
 271 271 271 271 269 269 269 269 391 391 391 5 5 119 119 146 146 144 144 117
 117 117 166 166 166 376 376 376 376 376 376 225 225 271 269 269 269 269 391 391
 391 5 119 119 119 119 144 144 144 117 117 117 117 117 117 376 376 376 376 376
 376 225 182 182 269 269 269 269 391 391 365 365 119 119 119 119 119 144 144 117
 117 117 117 117 264 264 264 145 376 376 182 182 182 182 349 349 349 365 365 365
 365 365 119 119 119 119 318 53 53 117 117 117 117 264 264 264 264 264 145 182
 182 182 182 182 349 349 349 365 365 365 365 101 101 119 119 318 318 53 53 53
 297 117 264 264 264 264 264 264 181 182 182 182 182 182 349 349 349 365 365 365
 365 101 101 119 318 318 318 53 53 53 297 236 236 264 264 264 264 264 181 181
 182 182 182 182 349 349 349 365 365 365 365 365 7 7 7 318 318 53 398 398
 297 236 236 264 264 264 264 181 181 181 181 182 182 182 349 349 349 365 365 365
 317 365 7 7 7 387 318 398 398 398 398 236 236 239 239 239 393 393 181 181
 181 181 182 182 349 349 349 365 317 317 317 317 7 387 387 387 387 398 398 398
 398 398 239 239 239 239 393 393 393 181 181 181 182 182 142 142 142 142 317 317
 317 317 387 387 387 387 162 162 398 398 398 398 239 239 239 239 239 393 393 393
 207 207 207 207 142 142 142 142 317 317 317 317 387 387 387 387 162 162 162 398
 398 398 239 239 239 239 239 393 393 207 207 207 207 207 1 1 142 142 142 317
 329 329 217 217 217 223 223 223 223 223 36 36 36 239 239 239 239 239 393 207
 207 207 207 207 1 1 1 1 329 329 329 329 217 217 217 217 223 223 223 223
 36 36 36 239 239 239 239 239 111 207 207 207 207 1 1 1 1 1 329 329
 329 329 217 217 217 217 223 223 223 184 36 36 36 239 239 239 239 111 111 111
 207 207 66 66 1 1 1 1 329 329 308 308 308 217 217 217 64 184 184 184
 184 184 184 184 80 80 80 111 111 111 111 66 66 66 1 1 1 74 74 308
 308 137 137 137 217 64 64 184 184 184 184 184 184 184 80 80 80 111 111 111
 66 66 66 66 66 74 74 74 74 308 137 137 137 324 324 64 64 184 184 184
 184 184 184 184 80 80 80 80 111 111 66 66 66 242 242 74 74 74 74 74
 137 137 324 324 324 324 64 184 184 184 184 184 184 184 80 80 80 80 111 29
 29 242 242 242 242 242 74 74 74 74 324 324 324 324 324 324 64 184 184 184
 184 184 184 32 32 32 32 32 32 29 242 242 242 242 242 242 74 74 74 74
 324 324 324 324 324 316 316 184 184 184 184 184 61 70 70 70 70 70 312 312
 242 242 242 242 242 242 276 276 276 74 324 324 324 324 316 316 316 316 184 389
 389 389 61 61 70 70 70 70 312 312 242 242 242 242 242 242 276 276 276 276
 154 154 324 324 316 316 316 316 389 389 389 389 61 61 70 70 70 312 312 312
 289 232 242 277 277 358 358 358 276 276 154 154 154 154 3 3 3 3 245 245
 389 389 389 61 70 70 70 289 289 289 289 39 39 277 277 358 358 358 358 154
 154 154 154 3 3 3 3 3 245 245 245 389 367 367 367 367 367 289 289 289
 289 39 39 39 39 358 358 358 358 154 154 154 154 3 3 3 3 3 245 245
 245 367 367 367 367 367 367 289 289 289 289 39 39 39 39 358 358 358 83 83
 215 215 215 146 146 3 3 146 245 245 245 367 367 367 367 367 367 289 289 289
 289 39 39 39 39 83 83 83 83 83 215 215 215 146 146 146 146 146 146 245
 245 367 166 166 166 367 153 153 153 153 289 271 39 39 39 83 83 83 83 83
 215 215 215 146 146 146 146 146 146 287 287 166 166 166 166 166 153 153 153 153
 271 271 271 271 39 83 83 83 83 83 215 215 215 146 146 146 146 146 287 287
 287 166 166 166 166 166 153 153 153 153 271 271 271 271 271 83 83 83 83 83
 5 5 5 5 146 309 309 309 287 287 287 166 166 166 166 26 26 153 153 153
 271 271 271 271 269 269 269 250 391 391 5 5 5 5 5 309 309 309 309 309
 117 117 166 166 26 26 26 376 376 376 225 225 225 293 293 269 269 204 391 391
 5 5 5 5 119 309 309 309 309 117 117 117 117 117 26 26 26 376 376 376
 225 225 225 293 293 293 293 293 391 391 365 5 5 119 119 119 309 309 309 117
 117 117 117 117 264 264 264 264 376 182 182 182 182 182 293 293 293 293 365 365
 365 101 101 119 119 318 318 309 53 117 117 117 117 264 264 264 264 264 182 182
 182 182 182 182 293 293 293 365 365 365 101 101 101 119 318 318 318 318 53 297
 297 117 264 264 264 264 264 264 181 182 182 182 182 182 349 349 349 365 365 365
 365 101 101 101 318 318 318 318 53 297 297 297 297 264 264 264 264 264 181 181
 182 182 182 182 182 349 349 365 365 365 365 365 7 7 7 318 318 318 398 297
 297 297 297 264 264 264 264 181 181 181 181 182 182 182 182 349 349 365 365 365
 317 387 387 387 387 387 318 398 398 398 398 297 297 239 239 393 393 393 181 181
 181 181 182 182 89 89 89 317 317 317 317 387 387 387 387 387 318 398 398 398
 398 398 239 239 239 393 393 393 393 181 181 181 182 182 89 89 142 142 317 317
 317 387 387 387 387 387 162 162 398 398 398 398 239 239 239 239 393 393 393 393
 207 207 207 207 1 142 142 142 317 317 317 317 387 387 387 387 162 162 162 398
 398 398 239 239 239 239 239 393 393 207 207 207 207 207 1 1 1 142 329 317
 329 329 387 217 217 217 162 162 162 223 36 36 239 239 239 239 239 239 393 207
 207 207 207 207 1 1 1 1 329 329 329 329 217 217 217 217 223 223 223 223
 36 36 36 239 239 239 239 111 111 111 207 207 207 1 1 1 1 1 329 329
 329 329 217 217 217 217 223 223 184 184 184 36 36 239 239 239 111 111 111 111
 111 207 66 66 1 1 1 1 329 329 329 137 217 217 217 217 64 184 184 184
 184 184 184 184 80 80 111 111 111 111 111 66 66 66 1 1 1 74 74 329
 137 137 137 217 217 64 64 64 184 184 184 184 184 184 80 149 149 111 111 111
 111 66 66 66 66 71 74 74 74 74 137 137 137 324 324 64 64 64 184 184
 184 184 184 184 149 149 149 149 111 29 29 29 66 66 242 71 74 74 74 74
 137 137 137 324 324 324 64 64 184 184 184 184 184 184 149 149 149 149 149 29
 29 29 29 242 242 242 74 74 74 74 324 324 324 324 324 324 64 64 184 184
 184 184 184 184 149 149 149 149 149 29 29 29 242 242 242 242 74 74 74 74
 324 324 324 324 324 316 316 64 184 184 184 389 389 389 70 70 149 149 312 29
 29 29 242 242 242 242 276 276 276 276 324 324 324 324 316 316 316 316 184 389
 389 389 389 389 389 70 70 312 312 312 232 232 242 242 242 276 276 276 276 324
 324 324 324 324 316 316 316 316 389 389 389 389 389 389 389 70 312 312 312 312
 232 232 232 277 277 358 358 276 276 324 324 324 324 324 3 3 3 3 389 389
 389 389 389 389 389 389 312 312 312 289 289 232 39 39 39 358 358 358 358 154
 380 380 380 3 3 3 3 3 389 389 389 389 389 389 367 367 289 289 289 289
 289 39 39 39 39 358 358 358 358 358 380 380 380 3 3 3 3 3 389 389
 389 389 389 367 367 367 289 289 289 289 289 39 39 39 39 358 358 358 358 358
 215 215 215 3 3 3 3 3 245 389 389 389 389 367 367 143 143 289 289 289
 289 39 39 39 39 39 83 83 83 83 215 215 215 146 146 3 146 146 287 287
 287 166 166 166 166 143 143 153 153 289 271 271 39 39 39 39 83 83 83 83
 215 215 215 146 146 146 146 146 287 287 287 166 166 166 166 143 143 153 153 153
 271 271 271 271 39 83 83 83 83 83 215 215 5 146 146 146 146 287 287 287
 287 166 166 166 166 166 143 153 153 153 271 271 271 271 271 83 83 83 83 83
 5 5 5 5 309 309 309 309 309 287 287 166 166 166 166 26 26 143 201 201
 271 271 271 271 293 293 250 250 250 5 5 5 5 5 309 309 309 309 309 309
 287 117 166 166 26 26 26 26 201 201 201 225 225 293 293 293 293 204 204 5
 5 5 5 5 309 309 309 309 309 309 117 117 117 117 26 26 26 26 201 201
 201 225 182 293 293 293 293 293 204 5 5 5 5 5 119 309 309 309 309 117
 117 117 117 117 264 264 264 264 182 182 182 182 182 293 293 293 293 293 365 5
 101 101 101 119 119 318 309 309 309 117 117 117 117 264 264 264 264 264 182 182
 182 182 182 182 293 293 293 293 365 365 101 101 101 101 318 318 318 318 318 297
 297 117 264 264 264 264 264 264 181 182 182 182 182 182 293 293 293 293 365 365
 101 101 101 101 318 318 318 318 318 297 297 297 297 264 264 264 264 264 181 181
 182 182 182 182 182 293 293 365 365 365 365 101 387 387 318 318 318 318 398 297
 297 297 297 264 264 264 264 181 181 181 181 182 182 182 182 293 89 294 365 365
 317 387 387 387 387 387 318 398 398 398 398 297 199 199 199 393 393 393 181 181
 181 182 182 182 89 89 89 89 317 317 317 387 387 387 387 387 318 398 398 398
 398 398 199 199 199 393 393 393 393 181 181 182 182 89 89 89 89 142 317 317
 168 168 387 387 387 387 162 162 398 398 398 398 199 199 199 393 393 393 393 393
 207 207 207 89 89 89 89 142 317 317 168 168 387 387 387 387 162 162 162 398
 398 398 239 239 239 393 393 393 393 207 207 207 207 207 1 1 1 1 329 329
 329 168 168 217 217 387 162 162 162 398 398 398 239 239 239 239 239 393 393 207
 207 207 207 207 1 1 1 1 329 329 329 329 217 217 217 217 223 223 223 184
 36 36 36 239 239 239 239 111 111 207 207 207 207 1 1 1 1 1 329 329
 329 329 217 217 217 217 217 223 184 184 184 184 184 239 239 111 111 111 111 111
 111 207 207 1 1 1 1 1 329 329 329 137 137 217 217 64 64 64 184 184
 184 184 184 184 149 149 149 111 111 111 111 66 66 66 1 1 1 1 329 329
 137 137 137 137 64 64 64 64 184 184 184 184 184 184 149 149 149 149 111 111
 29 29 66 66 71 71 71 67 67 74 137 137 137 324 324 64 64 64 184 184
 184 184 184 184 149 149 149 149 149 29 29 29 29 29 71 71 71 67 67 74
 137 137 324 324 324 64 64 64 184 184 184 184 184 184 149 149 149 149 149 29
 29 29 29 29 71 71 71 67 67 74 324 324 324 324 324 324 64 64 184 184
 184 184 184 149 149 149 149 149 149 29 29 29 29 29 242 71 74 74 74 74
 324 324 324 324 324 316 316 64 184 184 389 389 389 389 389 149 149 149 149 29
 29 29 121 121 242 276 276 276 276 324 324 324 324 324 324 316 316 316 389 389
 389 389 389 389 389 382 312 312 312 312 312 121 121 121 121 276 276 276 276 324
 324 324 324 324 316 316 316 316 389 389 389 389 389 389 389 382 312 312 312 312
 232 232 232 121 121 358 358 276 276 324 324 324 324 324 3 3 3 3 389 389
 389 389 389 389 389 389 312 312 312 312 232 232 232 121 121 358 358 358 358 324
 380 380 380 3 3 3 3 3 389 389 389 389 389 389 389 389 312 312 289 289
 289 232 39 39 39 358 358 358 358 380 380 380 380 380 3 3 3 3 389 389
 389 389 389 389 389 143 143 289 289 289 289 289 39 39 39 358 358 358 247 380
 380 380 380 380 3 3 3 3 389 389 389 389 389 389 143 143 143 143 289 289
 289 289 39 39 39 39 358 247 247 247 215 215 215 146 3 3 3 287 287 287
 287 166 166 166 166 143 143 143 143 289 289 271 271 39 39 39 247 247 247 247
 215 215 215 146 146 146 146 287 287 287 287 166 166 166 166 143 143 143 143 153
 271 271 271 271 39 216 250 250 247 247 5 5 5 5 146 309 309 287 287 287
 287 166 166 166 166 143 143 143 153 271 271 271 271 271 271 250 250 250 250 247
 5 5 5 5 309 309 309 309 309 287 287 287 166 166 26 26 26 143 201 201
 201 271 271 271 293 293 250 250 250 5 5 5 5 5 309 309 309 309 309 309
 287 287 166 26 26 26 26 26 201 201 201 201 225 293 293 293 204 204 204 5
 5 5 5 5 309 309 309 309 309 309 117 117 117 26 26 26 26 26 201 201
 201 201 182 293 293 293 293 204 204 5 5 5 5 5 309 309 309 309 309 309
 117 117 117 117 26 26 26 26 201 201 182 182 182 293 293 293 293 293 204 5
 5 5 5 5 309 309 309 165 165 165 165 117 117 264 264 264 264 264 182 182
 182 182 182 293 293 293 293 293 293 365 101 101 101 331 331 331 318 165 165 165
 165 165 264 264 264 264 264 264 181 182 182 182 182 182 293 293 293 293 365 365
 101 101 101 331 331 331 318 165 165 165 165 165 297 264 264 264 264 264 181 181
 182 182 182 182 182 293 293 293 365 365 218 101 387 331 331 331 331 331 398 398
 297 297 297 264 264 264 264 167 181 181 181 182 182 182 89 293 294 294 294 294
 218 218 387 331 331 331 331 398 398 398 398 398 199 199 199 393 393 393 181 181
 181 182 182 89 89 89 89 294 294 294 218 218 218 387 331 331 331 398 398 398
 398 398 199 199 199 393 393 393 393 181 341 341 341 341 89 89 89 294 294 317
 168 168 168 387 387 113 162 398 398 398 398 398 199 199 199 393 393 393 393 393
 341 341 341 89 89 89 89 294 294 317 168 168 168 387 113 113 113 398 398 398
 398 398 199 199 199 290 393 290 393 207 207 207 207 207 1 1 1 294 112 329
 168 168 168 168 113 113 162 162 162 398 398 398 199 239 239 290 290 290 290 207
 207 207 207 207 1 1 1 1 329 329 329 168 168 217 217 217 223 254 254 254
 254 254 254 239 399 399 290 111 111 207 207 207 207 1 1 1 1 1 329 329
 329 329 217 217 217 217 64 64 184 184 184 184 282 149 149 149 149 111 111 111
 207 207 207 1 1 1 1 6 6 329 339 137 137 37 37 37 64 64 184 184
 184 184 282 149 149 149 149 149 111 111 29 29 29 66 1 71 1 6 339 339
 339 137 137 37 37 37 64 64 64 184 184 184 184 149 149 149 149 149 149 29
 29 29 29 29 71 71 71 67 67 339 137 324 324 324 37 37 64 64 64 184
 184 282 282 282 149 149 149 149 149 29 29 29 29 29 71 71 71 67 67 67
 324 324 324 324 324 37 64 64 184 184 184 282 282 282 149 149 149 149 149 29
 29 29 29 29 71 71 67 67 67 67 324 324 324 324 324 324 64 64 184 184
 184 184 282 149 149 149 149 149 149 29 29 29 29 29 71 71 188 188 188 324
 324 324 324 324 324 324 316 64 184 184 389 389 389 389 382 382 382 149 159 159
 159 29 121 121 121 188 188 188 188 324 324 324 324 324 324 258 258 389 389 389
 389 389 389 389 382 382 382 312 312 159 159 121 121 121 121 121 188 188 188 324
 324 324 324 324 324 258 316 389 389 389 389 389 389 389 382 382 312 312 312 159
 232 232 121 121 121 121 188 188 188 324 350 350 350 350 3 3 3 389 389 389
 389 389 389 389 389 382 312 312 312 312 232 232 232 121 121 121 358 358 358 350
 380 380 380 380 3 3 3 3 389 389 389 389 389 389 389 382 312 312 312 289
 232 232 121 121 121 121 358 358 247 380 380 380 380 380 87 3 3 3 389 389
 389 389 389 389 389 143 143 289 289 289 289 121 121 121 121 121 358 247 247 247
 380 380 380 380 87 87 3 3 389 389 389 389 389 389 143 143 143 143 289 289
 289 289 39 39 39 39 247 247 247 247 247 380 380 380 87 87 3 287 287 287
 287 287 166 166 143 143 143 143 143 289 289 271 271 39 39 216 247 247 247 247
 247 5 5 5 87 87 287 287 287 287 287 287 166 166 166 143 143 143 143 143
 271 271 271 271 216 216 250 250 247 247 5 5 5 5 5 309 309 287 287 287
 287 287 166 166 166 143 143 143 143 201 271 271 271 271 216 216 250 250 250 247
 5 5 5 5 309 309 309 309 309 287 287 287 166 166 26 26 26 143 201 201
 266 266 266 216 216 216 216 250 250 5 5 5 5 5 309 309 309 309 309 309
 287 287 166 26 26 26 26 26 201 201 201 266 266 293 293 293 293 204 204 5
 5 5 5 5 309 309 309 309 309 309 117 117 117 26 26 26 26 26 201 201
 201 266 293 293 293 293 293 293 204 5 5 5 5 5 309 309 309 309 309 165
 165 165 117 26 26 26 26 26 201 201 182 182 182 293 293 293 293 293 122 5
 5 5 5 5 331 309 309 165 165 165 165 165 165 264 264 264 264 264 198 198
 182 182 182 293 293 293 293 293 122 5 65 65 331 331 331 331 331 165 165 165
 165 165 165 264 264 264 264 264 198 198 198 182 182 182 293 293 293 293 293 365
 65 65 331 331 331 331 331 165 165 165 165 165 156 156 156 264 167 167 167 198
 182 182 182 129 129 129 293 293 294 65 218 218 331 331 331 331 331 331 165 165
 165 165 156 156 156 264 167 167 167 181 181 182 182 129 129 129 294 294 294 294
 218 218 218 331 331 331 331 331 394 394 394 398 156 199 199 199 167 167 167 181
 341 341 341 129 89 89 294 294 294 294 218 218 218 331 331 331 331 4 394 394
 394 398 199 199 199 199 393 290 393 341 341 341 341 341 89 89 294 294 294 294
 218 218 218 387 113 113 113 4 394 394 394 398 199 199 199 290 290 290 290 290
 341 341 341 341 89 89 89 294 294 112 112 168 168 113 113 113 113 113 398 394
 398 398 199 199 199 290 290 290 290 290 207 341 207 207 89 89 89 294 112 112
 112 168 168 336 113 113 113 113 254 254 254 254 199 399 399 290 290 290 290 290
 207 207 207 207 1 1 6 6 112 112 112 112 336 336 336 113 113 254 254 254
 254 254 254 399 399 399 290 290 290 290 207 207 207 192 1 6 6 6 6 112
 339 339 336 336 336 37 37 254 254 254 254 254 282 282 399 149 149 149 111 226
 226 207 226 192 1 6 6 6 6 339 339 339 233 37 37 37 37 64 64 184
 282 282 282 282 149 149 149 149 149 226 226 226 226 226 6 6 6 6 339 339
 339 339 37 37 37 37 37 64 64 184 282 282 282 282 149 149 149 149 149 226
 226 226 226 226 71 71 71 6 6 339 339 324 324 37 37 37 37 64 64 184
 282 282 282 282 149 149 149 149 149 29 226 226 226 226 71 71 71 67 67 339
 324 324 324 324 37 37 37 64 64 184 282 282 282 282 149 149 149 149 149 29
 29 226 226 226 71 71 71 67 67 339 324 324 324 324 324 37 37 64 404 404
 282 282 282 382 382 149 149 149 149 159 29 29 226 226 71 71 188 188 188 188
 324 324 324 324 258 258 258 64 404 404 404 389 389 382 382 382 382 382 159 159
 159 121 121 121 121 188 188 188 188 188 324 324 324 324 258 258 258 258 404 404
 404 389 389 382 382 382 382 382 159 159 159 121 121 121 121 121 188 188 188 188
 350 350 350 350 258 258 258 258 404 404 389 389 389 389 382 382 382 312 159 159
 159 121 121 121 121 121 188 188 188 350 350 350 350 350 87 87 87 389 389 389
 389 389 389 389 382 382 312 312 312 159 121 121 121 121 121 121 121 188 188 350
 350 350 350 350 87 87 87 87 389 389 389 389 389 389 389 382 136 136 312 289
 121 121 121 121 121 121 121 247 247 247 380 380 380 87 87 87 87 87 389 389
 389 389 389 389 389 136 136 136 136 289 121 121 121 121 121 121 247 247 247 247
 247 380 380 380 87 87 87 87 389 389 389 389 389 389 143 143 143 136 136 289
 121 121 121 121 121 121 247 247 247 247 247 380 380 150 87 87 87 287 287 287
 287 287 166 166 143 143 143 143 143 143 266 266 266 121 216 216 247 247 247 247
 84 84 84 84 87 87 87 287 287 287 287 287 166 166 143 143 143 143 143 143
 266 266 266 266 216 216 216 247 247 247 84 84 84 84 84 309 309 309 287 287
 287 287 166 166 166 143 143 143 143 266 266 266 266 266 216 216 216 250 250 84
 84 84 84 84 8 8 8 8 8 287 287 287 166 166 26 26 176 176 176 176
 266 266 266 216 216 216 216 216 216 84 5 5 5 5 8 8 8 8 8 8
 170 170 170 26 26 26 26 176 176 201 266 266 266 293 293 216 122 122 122 5
 5 5 5 5 8 8 8 8 8 8 170 170 170 26 26 26 26 26 176 201
 201 266 266 293 293 293 122 122 122 122 5 5 5 5 8 8 8 8 165 165
 165 165 228 228 243 243 243 243 198 198 198 182 293 293 293 293 122 122 122 122
 5 5 5 331 331 331 8 165 165 165 165 165 228 228 228 243 243 198 198 198
 198 182 129 293 293 293 122 122 122 122 65 65 65 331 331 331 331 165 165 165
 165 165 228 228 228 228 167 167 198 198 198 182 129 129 129 129 129 122 122 122
 65 65 65 331 331 331 331 165 165 165 165 165 156 156 156 264 167 167 167 198
 198 182 129 129 129 129 129 122 122 65 65 65 65 331 331 331 331 331 165 165
 165 165 156 156 156 156 167 167 167 181 341 341 129 129 129 129 129 294 294 65
 218 218 218 331 331 331 331 4 394 394 394 165 156 156 156 156 167 167 167 341
 341 341 341 129 129 129 294 294 294 65 218 218 218 218 331 331 4 4 394 394
 394 394 199 199 199 199 290 290 290 341 341 341 341 341 129 129 294 294 294 218
 218 218 218 218 113 113 113 4 394 394 394 394 199 199 399 290 290 290 290 341
 341 341 341 341 89 89 294 294 294 112 112 112 168 113 113 113 113 113 394 394
 394 394 399 399 399 290 290 290 290 290 341 341 341 341 89 89 294 294 112 112
 112 112 336 336 113 113 113 113 254 254 254 254 399 399 399 399 290 290 290 290
 341 341 192 192 192 6 6 6 112 112 112 112 336 336 336 113 113 254 254 254
 254 254 399 399 399 399 290 290 290 290 192 192 192 192 192 6 6 6 6 112
 339 339 336 336 336 113 37 254 254 254 254 254 282 399 399 399 220 290 174 174
 226 192 192 192 192 6 6 6 6 339 339 339 233 233 37 37 37 37 254 254
 282 282 282 282 220 149 149 149 149 226 226 226 226 226 192 6 6 6 6 339
 339 339 233 37 37 37 37 37 64 282 282 282 282 282 149 149 149 149 149 226
 226 226 226 226 71 6 6 6 6 339 339 233 233 37 37 37 37 37 64 282
 282 282 282 282 149 149 149 149 149 226 226 226 226 226 71 71 6 6 6 339
 324 324 324 37 37 37 37 37 64 282 282 282 282 282 149 149 149 149 149 226
 226 226 226 226 71 71 71 67 6 339 324 324 324 324 37 37 37 37 404 404
 282 282 282 382 382 382 149 149 159 159 226 226 226 226 121 188 188 188 188 188
 324 324 324 324 258 258 258 258 404 404 404 389 389 382 382 382 382 382 159 159
 159 159 121 121 121 188 188 188 188 188 350 350 350 350 258 258 258 258 404 404
 404 389 389 382 382 382 382 382 159 159 159 121 121 121 121 121 188 188 188 188
 350 350 350 350 258 258 258 258 404 404 404 389 389 382 382 382 382 382 159 159
 159 121 121 121 121 121 188 188 188 350 350 350 350 350 87 87 87 87 404 389
 389 389 389 389 382 382 382 382 159 159 121 121 121 121 121 121 121 188 188 350
 350 350 350 350 87 87 87 87 389 389 389 389 389 389 389 382 136 136 136 159
 121 121 121 121 121 121 121 247 247 350 350 350 350 87 87 87 87 87 389 389
 389 389 389 389 389 136 136 136 136 136 121 121 121 121 121 121 121 247 247 247
 247 380 150 150 87 87 87 87 87 389 389 389 389 140 143 143 176 136 136 136
 121 121 121 121 121 121 307 247 247 247 247 150 150 150 150 87 87 87 287 287
 287 287 140 140 143 143 176 176 176 176 266 266 266 266 216 216 307 247 247 247
 84 84 84 150 150 150 8 8 287 287 287 287 166 166 143 143 176 176 176 176
 266 266 266 266 216 216 216 307 247 247 84 84 84 84 150 8 8 8 8 287
 287 287 166 166 143 176 176 176 176 176 266 266 266 266 216 216 216 216 250 84
 84 84 84 84 8 8 8 8 8 8 170 170 170 170 176 176 176 176 176 176
 266 266 266 216 216 216 216 122 122 84 5 5 5 8 8 8 8 8 8 8
 170 170 170 170 176 176 176 176 176 176 266 266 266 293 293 122 122 122 122 122
 5 5 5 5 8 8 8 8 8 8 170 170 170 170 243 243 243 176 176 176
 266 266 266 293 122 122 122 122 122 122 122 274 274 274 8 8 8 8 8 165
 165 170 228 228 243 243 243 243 176 198 306 306 293 293 122 122 122 122 122 122
 274 274 274 274 331 8 8 165 165 165 165 165 228 228 228 243 243 243 198 198
 306 306 129 129 129 122 122 122 122 122 65 65 65 331 331 331 331 165 165 165
 165 165 228 228 228 228 243 167 198 198 306 306 129 129 129 129 122 122 122 65
 65 65 65 331 331 331 331 165 165 165 165 165 228 228 228 228 167 167 167 306
 306 306 129 129 129 129 129 122 122 65 65 65 65 331 331 331 331 331 165 165
 165 165 156 156 156 228 167 167 167 306 306 306 129 129 129 129 129 294 294 65
 65 65 65 331 331 331 331 331 394 394 394 394 156 156 156 156 167 167 167 306
 341 341 341 129 129 129 294 294 294 65 218 218 218 218 331 331 331 4 394 394
 394 394 156 156 156 156 167 290 167 341 341 341 341 129 129 129 294 294 294 218
 112 218 218 218 113 113 113 4 394 394 394 394 95 399 399 399 290 290 290 290
 341 341 341 129 129 383 383 383 383 112 112 112 218 113 113 113 113 113 394 394
 394 394 399 399 399 399 290 290 290 290 341 341 341 192 192 383 383 383 112 112
 112 112 336 336 113 113 113 113 254 254 254 254 399 399 399 399 399 290 290 290
 192 192 192 192 192 6 6 6 112 112 112 112 336 336 336 113 113 254 254 254
 254 254 399 399 399 399 399 290 290 174 192 192 192 192 192 6 6 6 6 112
 339 233 233 233 233 233 233 254 254 254 254 254 399 399 220 220 220 220 174 174
 174 192 192 192 192 6 6 6 6 6 339 233 233 233 233 233 37 37 254 254
 282 282 282 399 220 220 369 369 174 174 174 226 192 192 192 6 6 6 6 339
 339 233 233 233 37 37 37 37 37 282 282 282 282 282 220 149 369 369 174 174
 226 226 226 226 192 6 6 6 6 339 233 233 233 233 37 37 37 37 37 282
 282 282 282 282 149 149 369 369 369 226 226 226 226 226 226 71 354 354 354 339
 233 233 233 233 37 37 37 37 37 282 282 282 282 282 9 9 149 149 149 226
 226 226 226 226 226 134 134 134 134 134 324 324 324 324 37 37 37 37 404 404
 47 47 282 382 382 9 9 149 159 159 226 226 226 226 121 134 134 134 134 134
 48 48 48 324 258 258 258 258 404 404 47 47 47 382 382 382 382 382 159 159
 159 159 121 121 121 188 188 188 188 188 48 48 48 350 258 258 258 258 404 404
 404 47 389 382 382 382 382 382 159 159 159 121 121 121 121 121 188 188 188 188
 350 350 350 350 258 258 258 258 404 404 404 389 389 382 382 382 382 382 159 159
 159 121 121 121 121 121 188 188 188 350 350 350 350 350 87 87 87 87 351 351
 389 389 389 389 382 382 382 382 159 159 121 121 121 121 121 121 121 188 188 350
 350 350 350 350 87 87 87 87 351 351 389 389 389 73 73 382 136 136 136 347
 121 121 121 121 121 121 121 247 262 262 262 350 150 150 87 87 87 87 351 389
 389 389 140 73 73 136 136 136 136 347 347 121 121 121 121 121 307 307 262 262
 262 150 150 150 150 87 87 87 82 82 82 389 140 140 140 176 176 176 176 347
 347 121 121 121 121 307 307 307 307 262 150 150 150 150 150 150 87 8 82 82
 82 140 140 140 140 176 176 176 176 176 176 266 266 266 216 307 307 307 307 307
 84 84 150 150 150 150 8 8 8 82 82 287 140 140 140 176 176 176 176 176
 266 266 266 266 216 216 307 307 307 307 84 84 84 150 150 8 8 8 8 8
 170 170 170 140 176 176 176 176 176 176 266 266 266 266 216 216 216 307 307 84
 84 84 84 150 8 8 8 8 8 8 170 170 170 170 176 176 176 176 176 176
 176 266 266 322 322 216 122 122 122 122 5 5 5 150 8 8 8 8 8 8
 170 170 170 170 243 176 176 176 176 176 176 266 266 122 122 122 122 122 122 122
 122 274 274 274 8 8 8 8 8 8 170 170 170 170 243 243 243 176 176 176
 176 187 187 122 122 122 122 122 122 122 274 274 274 274 274 8 8 8 8 8
 170 170 228 228 243 243 243 243 176 176 306 306 306 122 122 122 122 122 122 122
 274 274 274 274 274 8 8 165 165 165 165 228 228 228 228 243 243 243 306 306
 306 306 306 129 129 122 122 122 122 122 65 65 65 65 331 331 331 165 165 165
 165 228 228 228 228 228 243 243 306 306 306 306 306 129 129 129 122 122 122 65
 65 65 65 65 331 331 331 165 165 165 165 228 228 228 228 228 167 167 306 306
 306 306 306 129 129 129 129 122 122 65 65 65 65 65 331 331 331 331 374 374
 374 228 228 228 228 228 167 167 306 306 306 306 129 129 129 129 129 294 65 65
 65 65 65 366 331 331 331 331 374 374 374 374 95 95 95 197 197 197 197 306
 306 306 129 129 129 129 129 294 294 65 65 65 65 366 331 331 331 4 374 374
 374 95 95 95 95 197 197 197 197 197 341 341 341 129 129 129 383 383 383 65
 112 112 218 218 113 113 113 4 394 394 394 95 95 95 399 399 197 197 197 197
 341 341 341 129 129 383 383 383 383 112 112 112 112 113 113 113 113 113 191 248
 248 399 399 399 399 399 399 290 290 290 341 341 192 192 383 383 383 383 383 112
 112 112 112 336 113 113 113 113 254 254 254 399 399 399 399 399 399 290 290 290
 192 192 192 192 192 6 6 6 112 112 112 112 233 233 233 233 233 98 98 254
 254 399 399 399 399 399 399 399 399 174 192 192 192 192 192 6 6 6 6 112
 233 233 233 233 233 233 233 98 98 98 254 399 399 399 220 220 220 399 174 174
 174 192 192 192 192 6 6 6 6 6 233 233 233 233 233 233 233 98 98 98
 282 282 399 399 220 220 369 369 174 174 174 226 192 192 192 6 6 6 6 6
 233 233 233 233 233 233 37 98 98 98 282 282 282 344 344 369 369 369 369 174
 174 226 226 226 192 6 354 354 6 6 233 233 233 233 233 37 37 37 98 282
 282 282 282 344 344 369 369 369 369 226 226 226 226 226 226 6 354 354 354 6
 233 233 233 233 233 37 37 37 37 47 282 282 282 344 9 9 9 369 369 50
 226 226 226 226 226 134 134 134 134 134 48 233 233 233 60 60 60 60 47 47
 47 47 47 9 9 9 9 299 159 50 50 226 226 121 134 134 134 134 134 134
 48 48 48 60 60 60 60 60 404 47 47 47 47 382 9 9 382 299 159 159
 159 159 121 121 121 134 134 134 134 134 48 48 48 350 258 258 258 258 404 404
 47 47 47 382 382 382 382 299 159 159 159 121 121 121 121 121 188 188 188 188
 48 48 48 350 326 326 326 326 351 351 351 389 93 93 382 382 382 299 299 159
 159 121 121 121 121 121 255 255 255 350 350 350 350 350 326 326 326 326 351 351
 351 389 93 93 93 382 382 299 299 159 121 121 121 121 121 121 255 255 255 262
 262 350 350 34 326 326 326 326 351 351 351 389 73 73 73 382 136 136 347 347
 347 121 121 121 121 121 255 255 262 262 262 150 150 150 150 87 87 87 90 90
 90 90 73 73 73 73 136 136 347 347 347 121 121 121 121 121 307 307 262 262
 262 150 150 150 150 150 87 87 82 82 82 140 140 140 140 176 176 176 176 347
 347 121 121 121 121 307 307 307 307 262 150 150 150 150 150 150 150 139 82 82
 82 140 140 140 140 176 176 176 176 176 62 266 322 322 322 307 307 307 307 307
 150 150 150 150 150 150 8 8 82 82 82 140 140 140 140 176 176 176 176 176
 176 266 322 322 322 322 307 307 307 307 84 303 150 150 150 8 8 8 8 8
 170 170 170 140 176 176 176 176 176 176 176 266 266 322 322 322 307 307 307 307
 303 303 303 150 8 8 8 8 8 8 170 170 170 170 176 176 176 176 176 176
 176 266 322 322 322 322 122 122 122 122 303 303 303 150 8 8 8 8 8 8
 170 170 170 170 176 176 176 176 176 176 176 187 187 322 327 122 122 122 122 122
 274 274 274 274 40 40 8 8 8 8 170 170 170 170 243 243 243 176 176 176
 187 187 187 327 327 122 122 122 122 122 274 274 274 274 40 40 40 8 8 8
 283 170 228 228 243 243 243 243 176 176 187 187 187 327 327 122 122 122 122 122
 274 274 274 274 40 40 40 8 165 283 283 283 228 228 228 243 243 243 306 306
 306 306 306 129 129 122 122 122 122 122 274 274 274 274 366 366 40 374 374 283
 283 283 228 228 228 228 243 306 306 306 306 306 306 129 129 129 122 122 122 274
 65 65 65 366 366 366 331 374 374 374 283 283 228 228 228 228 228 306 306 306
 306 306 306 129 129 129 129 122 280 280 65 65 366 366 366 366 331 374 374 374
 374 374 228 228 228 228 197 197 306 306 306 306 306 129 129 129 129 280 280 280
 65 65 366 366 366 366 331 374 374 374 374 374 95 95 95 197 197 197 197 306
 306 306 194 129 129 129 129 294 280 280 65 65 366 366 366 366 331 374 374 374
 374 95 95 95 95 197 197 197 197 197 306 306 194 194 129 129 383 383 383 280
 112 65 366 366 366 366 113 191 191 248 248 95 95 95 95 197 197 197 197 197
 306 306 194 194 129 383 383 383 383 112 112 112 23 23 23 113 113 191 191 248
 248 248 399 399 399 399 399 197 197 197 306 306 192 246 383 383 383 383 383 112
 112 112 23 23 23 23 23 248 248 248 248 248 399 399 399 399 399 399 197 197