# vtk DataFile Version 2.0
Data set from ImportExport Version 6.5.141.ec284b7a5
ASCII

DATASET RECTILINEAR_GRID
DIMENSIONS 26 26 26
X_COORDINATES 26 float
-3.000000 3.000000 9.000000 15.000000 21.000000 27.000000 33.000000 39.000000 45.000000 51.000000 57.000000 63.000000 69.000000 75.000000 81.000000 87.000000 93.000000 99.000000 105.000000 111.000000 117.000000 
123.000000 129.000000 135.000000 141.000000 147.000000 
Y_COORDINATES 26 float
-3.000000 3.000000 9.000000 15.000000 21.000000 27.000000 33.000000 39.000000 45.000000 51.000000 57.000000 63.000000 69.000000 75.000000 81.000000 87.000000 93.000000 99.000000 105.000000 111.000000 117.000000 
123.000000 129.000000 135.000000 141.000000 147.000000 
Z_COORDINATES 26 float
-3.000000 3.000000 9.000000 15.000000 21.000000 27.000000 33.000000 39.000000 45.000000 51.000000 57.000000 63.000000 69.000000 75.000000 81.000000 87.000000 93.000000 99.000000 105.000000 111.000000 117.000000 
123.000000 129.000000 135.000000 141.000000 147.000000 
CELL_DATA 15625
SCALARS FeatureIds int 1
LOOKUP_TABLE default
 85 85 85 57 57 57 57 57 57 57 23 23 23 5 5 5 5 5 5 5
 5 5 5 53 53 85 85 85 57 57 57 57 57 57 23 23 23 23 75 75
 75 75 5 5 5 5 5 53 53 53 51 85 85 57 57 57 57 57 108 23
 23 23 75 75 75 75 75 75 75 5 5 53 53 53 53 51 51 51 51 57
 108 108 108 108 108 23 23 75 75 75 75 75 75 75 75 53 53 53 53 53
 51 51 51 91 91 108 108 108 108 108 70 70 75 75 75 75 75 75 75 75
 53 53 53 53 53 51 51 91 91 91 108 108 108 108 70 70 70 70 65 65
 65 65 65 65 65 83 83 83 83 83 63 91 91 91 99 108 108 108 70 70
 70 70 49 65 65 65 65 65 65 65 83 83 83 83 83 63 63 99 99 99
 99 99 99 70 70 70 49 49 49 65 65 65 65 65 65 83 83 83 83 83
 63 63 99 99 99 99 99 99 70 70 78 78 49 49 49 65 65 65 65 38
 38 38 83 63 63 63 63 99 99 99 99 99 99 70 78 78 78 49 49 49
 65 65 65 44 44 38 38 63 63 63 63 63 2 2 99 99 99 99 41 41
 78 78 49 49 49 49 65 44 44 44 38 38 63 63 63 63 2 2 2 2
 99 99 99 41 41 41 49 49 49 49 49 44 44 44 44 44 38 63 63 63
 63 2 2 2 2 99 99 99 41 41 41 49 49 49 49 49 44 44 44 44
 44 38 63 63 63 36 36 36 36 86 86 86 86 41 41 41 84 84 96 96
 96 96 96 44 44 44 8 8 8 8 36 36 36 86 86 86 86 86 86 84
 84 84 84 96 96 96 96 96 96 96 68 8 8 8 8 36 36 86 86 86
 86 86 86 86 84 84 84 84 96 96 96 96 96 96 96 96 8 8 8 8
 77 77 86 86 86 86 86 86 86 59 59 59 59 96 96 96 96 96 96 96
 96 8 8 8 8 77 77 29 29 86 86 86 37 37 59 59 59 59 96 96
 96 96 96 96 96 96 96 8 8 8 29 29 29 29 29 37 37 37 37 37
 59 59 59 96 96 96 96 96 96 96 96 96 8 8 77 29 29 29 29 57
 37 37 37 37 37 37 59 59 96 96 96 96 96 96 96 96 96 11 11 77
 57 57 57 57 57 57 37 37 37 37 37 37 59 96 96 96 5 5 5 5
 5 5 5 11 11 57 57 57 57 57 57 57 37 37 37 37 37 37 96 5
 5 5 5 5 5 5 5 5 11 11 57 57 57 57 57 57 57 37 37 37
 37 37 27 27 5 5 5 5 5 5 5 5 5 11 11 57 57 57 57 57
 57 57 57 37 37 37 37 27 27 27 5 5 5 5 5 5 5 5 11 11
 57 57 57 57 57 57 57 57 57 57 37 27 27 27 5 5 5 5 5 5
 5 5 5 5 97 85 85 85 57 57 57 57 57 57 23 23 23 23 23 5
 5 5 5 5 5 5 5 5 53 85 85 85 85 85 57 57 57 57 57 23
 23 23 23 75 75 75 5 5 5 5 5 5 53 53 85 51 85 85 85 57
 57 57 57 70 70 23 23 23 75 75 75 75 75 75 5 5 53 53 53 53
 51 51 51 51 91 108 108 70 70 70 70 23 23 75 75 75 75 75 75 75
 53 53 53 53 53 51 51 51 91 91 108 108 70 70 70 70 70 75 75 75
 75 75 75 75 75 53 53 53 53 53 51 51 91 91 91 108 70 70 70 70
 70 70 70 65 65 65 65 65 65 65 83 83 83 83 83 83 83 91 91 91
 99 70 70 70 70 70 70 49 65 65 65 65 65 65 65 83 83 83 83 83
 83 83 99 99 99 99 99 70 70 70 70 49 49 49 65 65 65 65 65 65
 83 83 83 83 83 63 63 99 99 99 99 99 99 70 70 70 49 49 49 49
 65 65 65 65 65 38 38 83 83 83 63 63 99 99 99 99 99 99 70 41
 49 49 49 49 49 65 65 65 65 44 38 38 38 63 63 63 63 2 2 99
 99 99 99 41 41 41 49 49 49 49 49 65 65 44 44 38 38 38 63 63
 63 2 2 2 2 99 99 99 41 41 41 49 49 49 49 49 49 44 44 44
 38 38 38 63 63 36 36 2 2 2 99 99 99 41 41 41 49 49 49 49
 49 49 44 44 44 44 38 38 63 63 36 36 36 36 36 86 86 86 41 41
 84 84 84 49 49 96 96 96 44 44 68 38 8 8 8 36 36 36 36 86
 86 86 86 22 22 84 84 84 96 96 96 96 96 68 68 68 8 8 8 8
 77 77 77 86 86 86 86 86 22 22 84 84 84 96 96 96 96 96 96 68
 68 8 8 8 8 77 77 77 77 86 86 86 86 86 59 59 59 59 59 96
 96 96 96 96 96 68 8 8 8 8 77 77 77 77 77 86 86 37 37 59
 59 59 59 59 96 96 96 96 96 96 68 68 8 8 8 77 77 77 77 77
 77 37 37 37 37 59 59 59 59 96 96 96 96 96 96 96 68 8 8 77
 77 77 77 77 77 37 37 37 37 37 37 59 59 96 96 96 96 104 104 104
 104 104 11 11 77 77 77 57 57 57 37 37 37 37 37 37 37 59 96 96
 104 104 104 104 104 104 104 11 11 11 57 57 57 57 57 57 37 37 37 37
 37 37 37 5 5 5 5 5 5 5 5 5 11 11 11 57 57 57 57 57
 57 37 37 37 37 37 37 27 27 5 5 5 5 5 5 5 5 11 11 11
 57 57 57 57 57 57 57 37 37 37 37 37 27 27 27 5 5 5 5 5
 5 5 5 11 11 57 57 57 57 57 57 57 57 37 37 37 27 27 27 27
 5 5 5 5 5 5 5 5 97 97 85 85 85 57 57 57 57 37 37 37
 23 23 23 5 5 5 5 5 5 5 5 5 97 97 97 85 85 85 85 57
 57 57 37 37 23 23 23 23 75 5 5 5 5 5 5 5 5 97 97 97
 85 85 85 85 57 57 57 70 70 70 23 23 23 75 75 75 75 75 75 5
 5 53 53 53 53 51 51 51 51 91 91 70 70 70 70 70 23 106 75 75
 75 75 75 75 75 53 53 53 53 53 51 51 51 91 91 91 70 70 70 70
 70 70 106 75 75 75 75 75 75 75 75 53 53 53 53 51 51 91 91 91
 91 70 70 70 70 70 70 106 65 65 65 65 65 65 65 65 83 83 83 83
 83 91 91 91 91 99 58 58 70 70 70 70 49 65 65 65 65 65 65 65
 83 83 83 83 83 83 83 91 99 99 99 58 58 70 70 70 49 49 49 65
 65 65 65 65 65 83 83 83 83 83 63 17 99 99 99 99 99 58 70 70
 70 49 49 49 49 65 65 65 65 65 38 38 83 83 83 63 63 99 99 99
 99 99 99 70 70 49 49 49 49 49 65 65 65 65 65 38 38 38 71 63
 63 2 2 2 99 99 99 99 41 41 49 49 49 49 49 49 65 65 65 38
 38 38 38 71 63 2 2 2 2 2 99 99 74 41 41 41 49 49 49 49
 49 49 65 65 38 38 38 38 71 63 36 36 36 36 36 36 99 74 41 41
 41 49 49 49 49 49 49 68 68 68 68 38 38 71 63 36 36 36 36 36
 86 86 86 22 22 22 49 49 49 49 49 49 68 68 68 68 68 68 8 8
 36 36 36 36 86 86 86 86 22 22 22 84 84 49 96 96 96 68 68 68
 68 68 8 8 8 77 77 77 77 86 86 86 86 22 22 22 84 84 96 96
 96 96 68 68 68 68 68 8 8 8 77 77 77 77 86 86 86 86 22 22
 22 59 59 59 96 96 96 96 68 68 68 68 8 8 8 77 77 77 77 77
 77 86 37 37 59 59 59 59 59 96 96 96 96 68 68 68 68 8 8 8
 77 77 77 77 77 77 37 37 37 37 59 59 59 59 96 96 96 104 104 104
 104 68 81 8 77 77 77 77 77 77 37 37 37 37 37 37 59 59 59 96
 104 104 104 104 104 104 104 11 11 77 77 77 77 77 77 37 37 37 37 37
 37 37 59 104 104 104 104 104 104 104 104 104 11 11 11 77 77 77 57 57
 37 37 37 37 37 37 37 37 104 104 104 104 104 104 104 104 104 11 11 11
 57 57 90 90 57 37 37 37 37 37 37 37 27 27 5 5 5 5 5 5
 5 5 11 11 11 57 57 90 90 90 57 37 37 37 37 37 37 27 27 27
 5 5 5 5 5 5 5 11 11 11 57 90 90 90 57 57 37 37 37 37
 37 37 27 27 5 5 5 5 5 5 5 5 97 97 97 97 85 85 57 57
 57 57 37 37 37 23 23 23 5 5 5 5 5 5 5 5 97 97 97 97
 97 85 85 85 57 57 57 37 37 37 23 23 23 75 5 5 5 5 5 5
 5 97 97 97 97 97 85 85 85 57 57 70 70 70 70 106 106 106 75 75
 75 75 75 5 5 97 97 97 97 97 97 51 51 51 91 91 70 70 70 70
 70 106 106 106 75 75 75 75 75 75 97 97 97 97 97 51 51 51 91 91
 91 70 70 70 70 70 106 106 106 75 75 75 65 65 65 7 53 53 97 53
 51 51 91 91 91 70 70 70 70 70 70 106 106 65 65 65 65 65 65 65
 7 7 83 83 83 83 91 91 91 91 99 58 58 70 70 70 70 49 65 65
 65 65 65 65 65 7 7 83 83 83 83 17 17 99 99 99 58 58 70 70
 70 49 49 49 65 65 65 65 65 65 7 83 83 83 83 17 17 17 99 99
 99 58 58 70 70 70 49 49 49 49 65 65 65 65 65 7 38 83 71 71
 17 17 17 99 99 99 99 58 70 70 49 49 49 49 49 65 65 65 65 65
 38 38 71 71 71 17 17 17 99 99 99 99 74 74 70 49 49 49 49 49
 49 65 65 65 65 38 38 71 71 71 17 36 36 36 36 99 74 74 74 41
 49 49 49 49 49 49 49 65 68 68 38 38 71 71 71 36 36 36 36 36
 36 74 74 74 41 49 49 49 49 49 49 49 68 68 68 68 68 68 71 71
 36 36 36 36 36 36 86 74 22 22 22 49 49 49 49 49 68 68 68 68
 68 68 68 68 68 36 36 36 36 36 86 86 86 22 22 22 22 84 49 49
 49 68 68 68 68 68 68 68 8 8 77 77 77 77 77 77 77 22 22 22
 22 22 84 96 96 96 68 68 68 68 68 68 68 8 8 77 77 77 77 77
 77 77 77 22 22 22 59 59 59 96 96 96 68 68 68 68 68 68 8 8
 77 77 77 77 77 77 77 77 22 22 59 59 59 59 96 96 96 68 68 68
 68 68 68 8 77 77 77 77 77 77 77 77 37 37 37 59 59 59 59 96
 104 104 104 104 68 68 68 81 77 77 77 77 77 77 77 77 37 37 37 37
 37 37 59 59 104 104 104 104 104 104 104 81 11 77 77 77 77 77 77 77
 37 37 37 37 37 37 37 37 104 104 104 104 104 104 104 104 104 11 11 11
 77 77 77 77 57 37 37 37 37 37 37 37 37 104 104 104 104 104 104 104
 104 104 11 11 11 77 77 90 90 90 37 37 37 37 37 37 37 27 10 104
 104 104 104 104 104 104 104 11 11 11 97 90 90 90 90 37 37 37 37 37
 37 37 10 10 5 5 5 5 5 5 5 5 97 97 97 97 90 90 90 90
 57 37 37 37 37 37 37 27 10 5 5 5 5 5 5 5 5 97 97 97
 97 97 57 57 57 57 57 37 37 37 23 23 10 10 10 5 5 5 5 5
 97 97 97 97 97 97 97 57 57 57 57 57 37 37 37 106 106 106 106 10
 5 5 5 5 5 97 97 97 97 97 97 97 51 51 91 6 6 6 70 106
 106 106 106 106 106 75 75 75 5 97 97 97 97 97 97 97 51 51 51 91
 6 6 6 70 70 106 106 106 106 106 75 75 75 75 7 97 97 97 97 97
 97 51 51 91 91 6 6 6 70 70 106 106 106 106 65 65 65 65 65 7
 7 97 97 97 97 97 17 91 91 6 6 6 6 70 70 70 106 106 106 65
 65 65 65 65 7 7 7 7 97 97 17 17 17 17 6 6 58 70 70 70
 70 106 106 65 65 65 65 65 65 7 7 7 7 83 83 17 17 17 17 17
 58 58 58 70 70 70 70 49 49 65 65 65 65 65 7 7 7 7 83 83
 17 17 17 17 99 58 58 58 70 70 70 49 49 49 49 65 65 65 7 7
 7 3 3 71 71 17 17 17 17 99 99 58 70 70 70 49 49 49 49 49
 49 65 65 7 7 3 3 3 71 17 17 17 17 17 99 99 99 74 70 70
 49 49 49 49 49 49 49 65 7 7 3 3 3 71 17 17 17 36 36 36
 99 74 74 74 70 49 49 49 49 49 49 49 65 68 68 3 3 3 71 17
 17 36 36 36 36 36 74 74 74 41 49 49 49 49 49 49 49 68 68 68
 68 68 68 71 17 36 36 36 36 36 36 36 74 22 22 22 49 49 49 49
 49 68 68 68 68 68 68 68 68 68 36 36 36 36 36 77 77 22 22 22
 22 22 49 49 49 68 68 68 68 68 68 68 68 68 68 77 77 77 77 77
 77 77 22 22 22 22 22 22 31 31 68 68 68 68 68 68 68 68 68 68
 77 77 77 77 77 77 77 77 22 22 22 22 59 31 31 31 31 68 68 68
 68 68 68 68 77 77 77 77 77 77 77 77 77 22 22 22 59 59 31 31
 31 31 68 68 68 68 68 68 68 77 77 77 77 77 77 77 77 37 37 37
 37 37 59 31 31 31 31 104 68 68 68 81 81 81 77 77 77 77 77 77
 77 37 37 37 37 37 37 37 103 104 104 104 104 104 104 104 81 81 81 77
 77 77 77 77 77 77 37 37 37 56 56 56 56 104 104 104 104 104 104 104
 104 81 87 87 87 77 77 77 77 77 37 37 37 37 56 56 56 10 10 104
 104 104 104 104 104 104 104 87 87 87 77 77 90 90 90 37 37 37 37 56
 56 56 10 10 10 104 104 104 104 104 104 104 87 87 87 97 90 90 90 90
 37 37 37 37 37 37 37 10 10 10 104 104 104 104 104 104 97 97 97 97
 97 97 90 90 90 37 37 37 37 37 37 37 10 10 10 5 5 5 5 5
 5 97 97 97 97 97 97 97 97 57 57 57 37 37 37 106 10 10 10 10
 10 5 5 5 5 97 97 97 97 97 97 97 97 97 57 35 35 35 37 106
 106 106 106 10 10 10 5 5 5 97 97 97 97 97 97 97 97 97 97 35
 35 35 35 70 106 106 106 106 106 106 106 75 75 5 97 97 97 97 97 97
 97 97 97 97 35 35 35 35 70 70 106 106 106 106 106 106 75 75 7 7
 97 97 97 97 97 97 97 97 6 6 6 6 6 6 70 106 106 106 106 106
 106 65 65 7 7 7 7 97 97 97 97 17 17 6 6 6 6 6 6 70
 106 106 106 106 106 65 65 65 7 7 7 7 7 7 97 17 17 17 17 6
 6 6 6 70 70 70 106 106 106 65 65 65 65 7 7 7 7 7 7 7
 17 17 17 17 92 92 70 70 70 70 70 106 49 49 65 65 65 65 7 7
 7 7 7 7 17 17 17 17 17 17 58 70 70 70 70 70 49 49 49 49
 65 65 65 7 7 7 3 3 71 17 17 17 17 17 17 99 70 70 70 70
 70 49 49 49 49 49 65 65 7 7 3 3 3 71 17 17 17 17 17 17
 99 99 70 70 70 49 49 49 49 49 49 49 65 7 7 3 3 3 71 17
 17 17 17 17 36 36 74 74 74 70 49 49 49 49 49 49 49 68 7 7
 3 3 3 71 17 17 36 36 36 36 36 36 74 21 21 49 49 49 49 49
 49 68 68 68 68 68 68 68 71 17 36 36 36 36 36 36 36 77 22 22
 22 49 49 49 49 49 68 68 68 68 68 68 68 101 101 77 77 36 36 77
 77 77 77 22 22 22 22 49 49 49 68 68 68 68 68 68 68 68 68 68
 77 77 77 77 77 77 77 77 22 22 22 22 22 103 31 68 68 68 68 68
 68 68 68 68 68 77 77 77 77 77 77 77 77 22 22 22 103 103 103 31
 31 31 68 68 68 68 68 68 68 77 77 77 77 77 77 77 77 77 22 22
 103 103 103 103 31 31 31 68 68 68 68 68 68 68 77 77 77 77 77 77
 77 77 77 37 103 103 103 103 103 31 31 31 68 68 68 68 81 81 81 77
 77 77 77 77 77 77 77 37 56 56 56 103 103 103 103 104 104 104 104 104
 68 81 81 81 77 77 77 77 77 77 77 37 56 56 56 56 56 103 103 103
 104 104 104 104 104 104 81 87 87 87 77 77 77 77 77 37 37 56 56 56
 56 56 10 10 104 104 104 104 104 104 104 87 87 87 87 77 77 77 90 90
 37 37 37 56 56 56 56 10 10 10 47 104 104 104 104 104 87 87 87 87
 97 90 90 90 90 37 37 37 37 56 56 10 10 10 10 47 47 104 104 104
 104 97 97 97 97 97 97 90 90 90 37 37 37 37 37 37 10 10 10 10
 47 47 47 5 5 97 97 97 97 97 97 97 97 97 40 40 35 37 37 37
 106 10 10 10 10 47 47 47 5 97 97 97 97 97 97 97 97 97 97 40
 40 35 35 35 106 106 106 106 10 10 47 47 47 5 97 97 97 97 97 97
 97 97 97 40 40 40 35 35 35 106 106 106 106 106 106 47 47 47 7 97
 97 97 97 97 97 97 97 97 40 40 40 35 35 35 106 106 106 106 106 106
 106 47 7 7 7 97 97 97 97 97 97 97 97 40 6 6 35 35 6 106
 106 106 106 106 106 106 7 7 7 7 7 7 97 97 97 97 17 17 92 6
 6 6 6 6 70 106 106 106 106 106 65 7 7 7 7 7 7 7 7 7
 17 17 17 92 92 6 6 6 70 70 106 106 106 106 65 65 65 7 7 7
 7 7 7 7 7 17 17 17 17 92 92 92 70 70 70 70 106 106 49 65
 65 65 7 7 7 7 33 33 33 17 17 17 17 17 92 92 92 70 70 70
 70 49 49 49 49 65 65 7 7 7 7 7 3 3 17 17 17 17 17 92
 92 92 70 70 70 70 49 49 49 49 49 65 7 7 7 7 3 3 3 17
 17 17 17 17 45 45 92 70 70 70 49 49 49 49 49 49 49 7 7 7
 7 3 3 101 17 17 17 17 36 36 36 36 21 21 21 49 49 49 49 49
 49 49 7 7 7 7 3 3 101 17 17 17 36 36 36 36 36 21 21 21
 49 49 49 49 49 49 68 68 68 68 68 68 101 101 101 50 50 36 36 36
 77 77 21 21 21 21 49 49 49 49 49 68 68 68 68 68 68 101 101 101
 50 50 77 77 77 77 77 77 22 22 22 103 103 103 68 68 68 68 68 68
 68 68 68 101 101 77 77 77 77 77 77 77 77 22 22 22 103 103 103 31
 68 68 68 68 68 68 68 68 101 101 77 77 77 77 77 77 77 77 22 103
 103 103 103 103 31 31 31 68 68 68 68 68 68 68 77 77 77 77 77 77
 77 77 77 77 103 103 103 103 103 31 31 31 68 68 68 68 68 68 77 77
 77 77 77 77 77 77 77 77 103 103 103 103 103 103 103 31 31 68 68 68
 68 68 81 77 77 77 77 77 77 77 77 77 56 56 56 103 103 103 103 103
 103 104 104 104 104 68 81 81 77 77 77 77 77 77 77 77 37 56 56 56
 56 103 103 103 103 103 104 104 104 104 104 81 87 87 87 77 77 77 77 77
 77 37 56 56 56 56 56 103 103 47 47 104 104 104 104 104 87 87 87 87
 77 77 77 16 16 37 37 56 56 56 56 56 10 10 47 47 47 104 104 104
 104 87 87 87 87 97 97 16 16 16 37 37 56 56 56 56 10 10 10 47
 47 47 47 104 104 97 97 97 97 97 97 97 16 16 16 37 37 37 37 37
 56 10 10 10 47 47 47 47 47 5 97 97 97 97 97 97 97 16 16 40
 40 40 52 37 4 106 10 10 10 47 47 47 47 47 97 97 97 97 97 97
 97 97 97 40 40 40 40 35 35 4 4 106 10 10 47 47 47 47 110 97
 97 97 97 97 97 97 97 97 40 40 40 40 35 35 106 106 106 106 106 106
 110 110 110 110 97 97 97 97 97 97 97 97 40 40 40 40 40 35 35 106
 106 106 106 106 106 110 110 7 7 7 97 97 97 97 97 97 97 40 40 40
 40 35 35 6 106 106 106 106 106 106 106 7 7 7 7 7 7 97 97 97
 97 17 92 92 92 92 6 6 70 70 106 106 106 106 106 65 7 7 7 7
 7 7 7 7 97 17 17 92 92 92 92 92 92 70 70 62 62 62 62 65
 65 7 7 7 7 7 33 33 33 33 17 17 45 92 92 92 92 92 70 70
 62 62 62 62 62 65 7 7 7 7 7 33 33 33 33 17 17 45 92 92
 92 92 92 70 62 62 62 62 9 9 9 7 7 7 7 7 33 33 33 17
 17 17 17 45 92 92 92 92 70 62 62 62 62 9 9 9 7 7 7 7
 7 7 7 101 17 17 17 17 45 45 45 92 92 21 21 62 49 49 9 9
 9 7 7 7 7 7 7 7 101 17 102 102 102 45 45 45 45 21 21 21
 21 49 49 49 49 49 76 7 7 7 7 7 101 101 101 102 102 50 50 50
 77 21 21 21 21 21 49 49 49 49 76 76 68 68 7 68 101 101 101 101
 50 50 50 50 77 77 77 21 21 21 21 21 103 49 76 76 68 68 68 68
 68 68 101 101 101 50 50 50 50 77 77 77 77 94 94 94 103 103 103 103
 76 68 68 68 68 68 68 101 101 101 50 77 77 77 77 77 77 77 94 94
 94 103 103 103 103 103 68 68 68 68 68 68 101 101 101 77 77 77 77 77
 77 77 77 94 94 103 103 103 103 103 103 31 68 68 68 68 68 68 101 101
 77 77 77 77 77 77 77 77 94 103 103 103 103 103 103 103 31 68 68 68
 68 68 68 77 77 77 77 77 77 77 77 77 77 103 103 103 103 103 103 103
 103 103 68 68 68 68 68 68 77 77 77 77 77 77 77 77 77 103 103 103
 103 103 103 103 103 103 103 104 68 68 68 81 81 77 77 16 16 77 77 77
 77 56 56 56 103 103 103 103 103 103 103 104 104 104 104 104 81 87 16 16
 16 16 16 16 16 16 56 56 56 56 103 103 103 103 47 47 47 104 104 104
 104 87 87 16 16 16 16 16 16 16 16 56 56 56 56 103 103 103 47 47
 47 47 47 104 104 104 87 87 16 16 16 16 16 16 16 16 37 56 56 56
 103 10 10 47 47 47 47 47 47 47 97 97 97 97 97 16 16 16 16 16
 16 37 37 37 37 103 10 10 47 47 47 47 47 47 47 97 97 97 97 97
 16 16 16 16 79 79 79 52 52 4 72 72 72 10 47 47 47 47 110 110
 97 97 97 97 97 16 16 16 79 79 79 79 79 4 4 4 72 72 110 110
 110 110 110 110 110 97 97 97 97 97 97 97 79 79 79 79 79 79 79 4
 4 4 72 106 110 110 110 110 48 48 48 97 97 97 97 97 97 79 79 79
 79 79 79 35 4 4 106 106 106 110 110 110 48 48 48 48 48 97 97 97
 45 45 79 79 79 79 79 35 4 4 106 106 106 106 106 7 7 7 48 48
 48 48 48 97 97 45 45 92 92 92 92 92 92 70 62 62 62 62 62 62
 7 7 7 48 48 48 7 7 7 97 45 45 45 92 92 92 92 92 92 62
 62 62 62 62 62 7 7 7 7 7 7 7 33 33 33 45 45 45 92 92
 92 92 92 92 62 62 62 62 62 62 62 7 7 7 7 7 33 33 33 33
 45 45 45 92 92 92 92 92 92 62 62 62 62 62 9 9 7 7 7 7
 7 7 33 33 33 45 45 45 45 45 92 92 92 92 62 62 62 62 9 9
 9 7 7 7 7 7 7 7 101 17 102 45 45 45 45 45 45 92 21 62
 62 62 62 9 9 9 76 7 7 7 7 7 101 101 101 102 102 102 45 45
 45 45 21 21 21 21 62 49 9 9 76 76 76 76 76 7 101 101 101 101
 102 102 102 50 45 45 21 21 21 21 21 21 49 76 76 76 76 76 76 76
 7 101 101 101 101 102 50 50 102 102 77 21 21 21 21 94 94 94 76 76
 76 76 76 76 76 101 101 101 101 101 50 50 50 102 77 77 77 94 94 94
 94 94 94 103 76 76 76 76 76 68 68 101 101 101 101 50 50 50 77 77
 77 77 94 94 94 94 94 103 103 103 76 76 76 68 68 68 101 101 101 101
 77 77 77 77 77 77 77 94 94 94 94 103 103 103 103 103 76 68 68 68
 68 68 100 100 100 77 77 77 77 77 77 77 94 94 94 103 103 103 103 103
 103 103 61 68 68 68 68 100 100 77 77 77 77 77 77 77 77 94 103 103
 103 103 103 103 103 103 103 61 61 68 68 68 16 16 16 16 16 77 77 77
 77 103 103 103 103 103 103 103 103 103 103 103 61 61 68 68 16 16 16 16
 16 16 16 16 16 16 103 103 103 103 103 103 103 103 103 103 103 61 61 61
 16 16 16 16 16 16 16 16 16 16 16 103 103 103 103 103 103 103 103 103
 47 47 47 104 104 16 16 16 16 16 16 16 16 16 16 16 103 103 103 103
 103 103 103 103 47 47 47 47 47 47 16 16 16 16 16 16 16 16 16 16
 16 16 103 103 103 103 103 103 47 47 47 47 47 47 47 16 16 16 16 16
 16 16 16 16 16 16 52 52 103 103 103 103 103 47 47 47 47 47 47 47
 97 97 97 16 16 16 16 16 16 79 79 52 52 52 4 72 72 72 110 110
 110 110 110 110 110 110 97 97 16 16 16 16 16 16 79 79 79 52 4 4
 4 72 72 110 110 110 110 110 110 110 110 97 97 97 16 16 16 16 79 79
 79 79 79 4 4 4 4 72 110 110 110 110 110 110 110 110 110 97 97 97
 16 16 79 79 79 79 79 79 4 4 4 4 4 110 110 110 110 110 48 48
 48 48 48 97 97 45 45 45 79 79 79 79 4 4 4 4 62 62 62 110
 110 110 48 48 48 48 48 48 48 97 45 45 45 92 92 92 92 92 4 62
 62 62 62 62 62 7 7 48 48 48 48 48 48 48 97 45 45 45 92 92
 92 92 92 92 62 62 62 62 62 62 62 7 7 48 48 48 7 33 33 33
 45 45 45 92 92 92 92 92 92 62 62 62 62 62 62 62 7 7 7 7
 7 7 33 33 45 45 45 45 45 92 92 92 92 92 62 62 62 62 62 62
 7 7 7 7 7 7 7 33 33 45 45 45 45 45 45 45 92 92 92 62
 62 62 62 62 9 9 7 7 7 7 7 7 7 101 45 45 45 45 45 45
 45 45 45 21 62 62 62 62 62 9 76 76 76 76 7 7 7 101 101 101
 102 102 50 45 45 45 45 21 21 21 21 62 62 76 76 76 76 76 76 76
 76 101 101 101 101 102 102 50 50 45 45 45 21 21 21 21 94 76 76 76
 76 76 76 76 76 76 101 101 101 101 102 50 102 102 102 45 45 21 21 94
 94 94 94 76 76 76 76 76 76 76 76 101 101 101 101 50 102 102 102 102
 77 94 94 94 94 94 94 94 76 76 76 76 76 76 76 76 101 101 101 101
 50 102 102 102 77 77 94 94 94 94 94 94 94 103 76 76 76 76 76 76
 76 100 100 100 100 100 102 77 77 77 77 94 94 94 94 94 94 103 103 103
 103 61 61 61 76 68 100 100 100 100 16 77 77 77 77 77 94 94 94 94
 94 103 103 103 103 103 61 61 61 61 68 100 100 100 100 16 16 16 77 77
 77 94 94 94 103 103 103 103 103 103 103 61 61 61 61 61 100 100 16 16
 16 16 16 16 16 16 94 94 103 103 103 103 103 103 103 103 61 61 61 61
 61 16 16 16 16 16 16 16 16 16 16 103 103 103 103 103 103 103 103 103
 103 103 61 61 61 16 16 16 16 16 16 16 16 16 16 16 16 103 103 103
 103 103 103 103 103 103 43 43 61 61 16 16 16 16 16 16 16 16 16 16
 16 16 103 103 103 103 103 103 103 43 43 43 43 110 110 16 16 16 16 16
 16 16 16 16 16 16 16 103 103 103 103 103 103 103 43 43 43 110 110 110
 16 16 16 16 16 16 16 16 16 16 16 52 52 103 103 103 103 103 43 43
 43 43 110 110 110 110 16 16 16 16 16 16 16 16 16 52 52 52 52 52
 72 72 72 110 110 110 110 110 110 110 110 110 16 16 16 16 16 16 16 52
 52 52 52 52 4 72 72 72 110 110 110 110 110 110 110 110 110 97 16 16
 16 16 16 79 79 79 79 4 4 4 4 72 72 110 110 110 110 110 110 110
 110 110 110 97 16 16 16 79 79 79 79 79 4 4 4 4 4 72 110 110
 110 110 110 110 110 110 110 110 97 97 45 45 45 79 79 79 79 4 4 4
 4 4 4 62 110 110 110 110 48 48 48 48 48 48 48 45 45 45 45 92
 92 92 4 4 4 62 62 62 62 62 110 110 48 48 48 48 48 48 48 48
 45 45 45 45 92 92 92 92 92 62 62 62 62 62 62 62 7 7 48 48
 48 48 48 48 45 45 45 45 45 92 92 92 92 92 62 62 62 62 62 62
 62 7 7 30 30 30 7 33 45 45 45 45 45 45 45 92 92 92 92 62
 62 62 62 62 62 13 13 13 13 30 7 7 33 45 45 45 45 45 45 45
 45 45 45 45 62 62 62 62 62 62 13 13 13 13 7 7 7 7 45 45
 45 45 45 45 45 45 45 45 45 62 62 62 62 62 76 76 13 13 76 76
 76 7 101 101 45 50 50 45 45 45 45 45 45 21 21 21 62 76 76 76
 76 76 76 76 76 76 101 101 101 101 50 50 50 50 45 45 45 21 21 21
 94 94 76 76 76 76 76 76 76 76 76 101 101 101 101 50 50 102 102 102
 45 94 94 94 94 94 94 94 76 76 76 76 76 76 76 76 101 101 101 101
 102 102 102 102 102 94 94 94 94 94 94 94 94 76 76 76 76 76 76 76
 76 100 100 100 100 100 102 102 102 102 94 94 94 94 94 94 94 94 94 76
 76 76 76 76 76 76 100 100 100 100 100 102 102 102 77 94 94 94 94 94
 94 94 94 54 54 61 61 61 61 76 76 100 100 100 100 16 16 16 16 16
 94 94 94 94 94 94 94 103 54 54 61 61 61 61 61 61 100 100 100 100
 16 16 16 16 16 94 94 94 94 94 94 103 103 103 103 103 61 61 61 61
 61 100 16 16 16 16 16 16 16 16 16 94 94 94 103 103 103 103 103 103
 103 61 61 61 61 61 16 16 16 16 16 16 16 16 16 16 103 103 103 103
 103 103 103 103 103 103 61 61 61 61 16 16 16 16 16 16 16 16 16 16
 16 103 103 103 103 103 103 103 103 103 103 43 61 61 61 16 16 16 16 16
 16 16 16 16 16 16 16 103 103 103 103 103 103 103 43 43 43 110 110 110
 16 16 16 16 16 16 16 16 16 16 16 16 103 103 103 103 103 103 103 43
 43 43 110 110 110 110 16 16 16 16 16 16 16 16 16 16 52 52 52 52
 103 103 103 110 110 110 110 110 110 110 110 16 16 16 16 16 16 16 16 52
 52 52 52 52 52 72 72 72 110 110 110 110 110 110 110 110 110 110 16 16
 16 16 16 16 52 52 52 52 52 52 72 72 72 110 110 110 110 110 110 110
 110 110 110 16 16 16 16 16 52 52 52 52 52 4 4 4 72 72 110 110
 110 110 110 110 110 110 110 110 110 16 16 16 45 79 79 52 52 4 4 4
 4 4 72 110 110 110 110 110 110 110 110 110 110 110 16 45 45 45 45 79
 79 52 4 4 4 4 4 4 110 110 110 110 110 110 110 110 110 110 110 110
 45 45 45 45 92 92 92 4 4 4 4 62 62 62 110 110 110 110 48 48
 48 48 48 48 45 45 45 45 45 45 92 92 92 92 62 62 62 62 62 62
 110 110 7 30 30 30 48 48 48 45 45 45 45 45 45 92 92 92 92 62
 62 62 62 62 62 62 13 7 30 30 30 30 30 45 45 45 45 45 45 45
 45 45 92 92 62 62 62 62 62 62 13 13 13 13 30 30 30 1 45 45
 45 45 45 45 45 45 45 45 45 62 62 62 62 62 13 13 13 13 13 13
 30 1 1 45 45 45 45 45 45 45 45 45 45 45 62 62 62 62 62 76
 76 13 13 13 76 76 76 101 45 45 45 45 45 45 45 45 45 45 45 21
 62 62 76 76 76 76 76 76 76 76 76 76 101 101 101 98 50 50 45 45
 45 45 45 21 94 94 94 76 76 76 76 76 76 76 76 76 76 101 101 101
 98 50 102 102 45 45 45 94 94 94 94 94 94 76 76 76 76 76 76 76
 76 100 100 100 100 98 98 98 102 102 94 94 94 94 94 94 94 94 76 76
 76 76 76 76 76 76 100 100 100 100 100 98 98 102 94 94 94 94 94 94
 94 94 94 54 76 76 76 76 76 76 76 100 100 100 100 100 98 98 16 94
 94 94 94 94 94 94 94 94 54 54 61 61 61 61 76 100 100 100 100 100
 100 16 16 16 16 94 94 94 94 94 94 94 54 54 54 61 61 61 61 61
 100 100 100 100 100 16 16 16 16 16 94 94 94 94 94 94 94 103 54 54
 61 61 61 61 61 61 100 100 16 16 16 16 16 16 16 16 94 94 94 94
 103 103 103 103 103 103 61 61 61 61 61 16 16 16 16 16 16 16 16 16
 16 94 94 103 103 103 103 103 103 103 103 61 61 61 61 61 16 16 16 16
 16 16 16 16 16 16 94 103 103 103 103 103 103 103 103 103 110 61 61 61
 16 16 16 16 16 16 16 16 16 16 16 16 103 103 103 103 103 103 103 110
 110 110 110 110 110 110 16 16 16 16 16 16 16 16 16 16 52 52 103 103
 103 103 103 110 110 110 110 110 110 110 110 16 16 16 16 16 16 16 16 16
 52 52 52 52 52 103 103 110 110 110 110 110 110 110 110 110 110 16 16 16
 16 16 16 16 52 52 52 52 52 52 52 72 12 12 110 110 110 110 110 110
 110 110 110 16 16 16 16 16 16 52 52 52 52 52 52 72 72 72 12 110
 110 110 110 110 110 110 110 110 16 16 16 16 16 52 52 52 52 52 52 4
 4 72 12 12 110 110 110 110 110 110 110 110 110 110 16 46 45 45 52 52
 52 52 52 4 4 4 4 12 12 110 110 110 110 110 110 110 110 110 110 16
 46 45 45 45 45 52 52 4 4 4 4 4 12 12 110 110 110 110 110 110
 110 110 110 110 110 45 45 45 45 45 45 92 4 4 4 4 4 62 62 110
 110 110 110 110 110 110 110 110 110 45 45 45 45 45 45 45 92 92 4 62
 62 62 62 62 62 110 110 110 30 30 30 30 1 1 45 45 45 45 45 45
 45 45 45 45 62 62 62 62 62 62 13 13 13 30 30 30 1 1 1 45
 45 45 45 45 45 45 45 45 45 62 62 62 62 62 62 13 13 13 13 30
 30 1 1 45 45 45 45 45 45 45 45 45 45 45 62 62 62 62 62 13
 13 13 13 13 13 1 1 1 1 45 45 45 45 45 45 45 45 45 45 45
 62 62 62 76 76 76 76 13 13 76 76 1 1 45 45 98 98 45 45 45
 45 45 45 45 94 62 62 76 76 76 76 76 76 76 76 76 76 101 101 98
 98 98 98 45 45 45 45 94 94 94 94 94 76 76 76 76 76 76 76 76
 76 76 101 101 98 98 98 98 98 45 45 94 94 94 94 94 94 76 76 76
 76 76 76 76 76 76 100 100 100 98 98 98 98 98 45 94 94 94 94 94
 94 94 94 76 76 76 76 76 76 76 76 100 100 100 100 98 98 98 98 98
 94 94 94 94 94 94 94 94 76 76 76 76 76 76 76 76 100 100 100 100
 100 98 98 98 94 94 94 94 94 94 94 94 94 54 54 76 61 61 61 76
 76 100 100 100 100 16 16 16 16 16 94 94 94 94 94 94 94 94 54 54
 61 61 61 61 61 61 100 100 100 100 16 16 16 16 16 94 94 94 94 94
 94 94 94 54 54 61 61 61 61 61 61 100 100 16 16 16 16 16 16 16
 16 94 94 94 94 94 94 103 103 103 61 61 61 61 61 61 16 16 16 16
 16 16 16 16 16 16 94 94 94 94 103 103 103 103 103 107 61 61 61 61
 61 16 16 16 16 16 16 16 16 16 16 94 103 103 103 103 103 103 103 103
 110 107 107 107 107 107 16 16 16 16 16 16 16 16 16 16 16 103 103 103
 103 103 103 103 110 110 110 110 110 110 110 16 16 16 16 16 16 16 16 16
 16 52 52 52 103 103 103 12 110 110 110 110 110 110 110 110 16 16 16 16
 16 16 16 16 16 52 52 52 52 52 52 12 12 110 110 110 110 110 110 110
 110 110 16 16 16 16 16 16 16 52 52 52 52 52 52 52 12 12 12 12
 110 110 110 110 110 110 110 110 16 16 16 16 16 52 52 52 52 52 52 52
 52 12 12 12 12 110 110 110 110 110 110 110 110 110 16 16 16 16 52 52
 52 52 52 52 52 4 12 12 12 12 110 110 110 110 110 110 110 110 110 16
 46 46 46 52 52 52 52 52 52 4 4 12 12 12 12 110 110 110 110 110
 110 110 110 110 110 46 46 46 52 52 52 52 52 4 4 4 12 12 12 110
 110 110 110 110 110 110 110 110 110 110 46 46 45 45 45 45 52 52 4 4
 4 12 12 12 110 110 110 110 110 110 110 110 110 1 1 46 45 45 45 45
 45 45 45 4 4 62 62 62 34 34 110 110 110 110 110 1 1 1 1 1
 45 45 45 45 45 45 45 45 45 62 62 62 62 62 34 34 34 34 1 1
 1 1 1 1 1 45 45 45 45 45 45 45 45 45 62 62 62 62 34 34
 34 34 13 1 1 1 1 1 1 1 45 45 45 45 45 45 45 45 55 55
 55 62 62 62 34 34 13 13 1 1 1 1 1 1 1 45 45 45 45 45
 45 45 45 55 55 55 62 62 111 76 76 76 76 76 1 1 1 1 1 1
 98 98 98 45 45 45 45 45 55 55 55 55 76 76 76 76 76 76 76 76
 1 1 1 1 98 98 98 98 98 45 45 45 55 55 55 55 94 76 76 76
 76 76 76 76 76 76 1 1 1 98 98 98 98 98 45 45 94 94 94 94
 94 94 76 76 76 76 76 76 76 76 76 100 100 100 98 98 98 98 98 98
 94 94 94 94 94 94 94 94 76 76 76 76 76 76 76 76 100 100 100 98
 98 98 98 98 98 94 94 94 94 94 94 94 94 94 76 76 76 76 76 76
 76 100 100 100 100 98 98 98 98 95 95 94 94 94 94 94 94 94 94 54
 76 61 61 61 76 100 100 100 100 100 16 16 16 16 95 95 94 94 94 94
 94 94 94 94 54 61 61 61 61 61 61 100 100 100 100 16 16 16 16 16
 95 94 94 94 94 94 94 94 94 54 61 61 61 61 61 61 100 16 16 16
 16 16 16 16 16 95 94 94 94 94 94 94 94 94 103 107 107 107 107 107
 107 16 16 16 16 16 16 16 16 16 16 95 94 94 94 94 94 103 103 107
 107 107 107 107 107 107 16 16 16 16 16 16 16 16 16 16 95 94 94 103
 103 103 103 103 107 107 107 107 107 107 107 16 16 16 16 16 16 16 16 16
 16 69 69 69 103 103 103 103 110 110 110 110 107 107 107 107 16 16 16 16
 16 16 16 16 16 16 52 69 52 52 52 12 12 12 110 110 110 110 110 110
 110 110 16 16 16 16 16 16 16 16 52 52 52 52 52 52 12 12 12 110
 110 110 110 110 110 110 110 110 16 16 16 32 16 52 52 52 52 52 52 52
 12 12 12 12 12 110 110 110 110 110 110 110 110 110 16 32 32 32 52 52
 52 52 52 52 52 12 12 12 12 12 110 110 110 110 110 110 110 110 110 16
 32 32 32 52 52 52 52 52 52 52 12 12 12 12 12 110 110 110 110 110
 110 110 110 110 110 46 46 46 52 52 52 52 52 52 52 12 12 12 12 12
 110 110 110 110 110 110 110 110 110 110 46 46 46 46 52 52 52 52 52 52
 12 12 12 12 12 110 110 110 110 110 110 110 110 110 110 46 46 46 46 45
 52 52 52 52 4 4 12 12 12 12 110 110 110 110 110 110 110 1 1 1
 46 46 46 45 45 45 45 52 52 4 4 62 12 34 34 34 34 110 1 1
 1 1 1 1 1 46 45 45 25 25 25 45 45 55 55 55 62 42 34 34
 34 34 34 1 1 1 1 1 1 1 45 45 45 25 25 25 45 55 55 55
 55 55 42 34 34 34 34 34 1 1 1 1 1 1 1 45 45 45 25 25
 25 45 55 55 55 55 55 42 34 34 34 34 1 1 1 1 1 1 1 1
 98 45 45 45 45 45 45 55 55 55 55 55 55 111 111 111 76 76 1 1
 1 1 1 1 1 98 98 98 45 45 45 45 55 55 55 55 55 55 111 111
 76 76 76 76 1 1 1 1 1 1 98 98 98 98 45 45 55 55 55 55
 55 55 111 111 76 76 76 76 76 76 1 1 1 1 98 98 98 98 98 98
 95 95 55 55 55 55 55 111 111 76 76 76 76 76 76 1 1 1 1 98
 98 98 98 98 95 95 95 95 94 94 94 94 94 76 76 76 76 76 76 76
 76 100 100 100 98 98 98 98 98 95 95 95 95 94 94 94 94 94 94 76
 76 14 14 105 76 76 100 100 100 98 98 98 98 95 95 95 95 95 94 94
 94 94 94 94 14 14 14 14 14 14 100 100 100 100 100 16 16 16 95 95
 95 95 95 94 94 94 94 94 94 14 14 14 14 14 14 14 100 100 100 100
 16 16 16 16 95 95 95 95 94 94 94 94 94 94 14 14 14 14 14 14
 14 109 109 16 16 16 16 16 16 95 95 95 95 95 94 94 94 94 94 107
 107 107 107 107 107 107 16 16 16 16 16 16 16 16 16 95 95 95 95 94