# vtk DataFile Version 2.0
Data set from IO Version 6.4.197.9a0dee2
ASCII

DATASET RECTILINEAR_GRID
DIMENSIONS 31 31 31
X_COORDINATES 31 float
-1.116667 1.116667 3.350000 5.583333 7.816666 10.049999 12.283332 14.516665 16.749998 18.983332 21.216665 23.449997 25.683331 27.916664 30.149996 32.383331 34.616665 36.849998 39.083332 41.316666 43.549999 
45.783329 48.016663 50.249996 52.483330 54.716663 56.949997 59.183331 61.416660 63.649998 65.883324 
Y_COORDINATES 31 float
-1.116667 1.116667 3.350000 5.583333 7.816666 10.049999 12.283332 14.516665 16.749998 18.983332 21.216665 23.449997 25.683331 27.916664 30.149996 32.383331 34.616665 36.849998 39.083332 41.316666 43.549999 
45.783329 48.016663 50.249996 52.483330 54.716663 56.949997 59.183331 61.416660 63.649998 65.883324 
Z_COORDINATES 31 float
-1.116667 1.116667 3.350000 5.583333 7.816666 10.049999 12.283332 14.516665 16.749998 18.983332 21.216665 23.449997 25.683331 27.916664 30.149996 32.383331 34.616665 36.849998 39.083332 41.316666 43.549999 
45.783329 48.016663 50.249996 52.483330 54.716663 56.949997 59.183331 61.416660 63.649998 65.883324 
CELL_DATA 27000
SCALARS FeatureIds int 1
LOOKUP_TABLE default
 497 497 497 41 41 41 41 217 69 69 360 360 360 99 99 99 99 318 318 318
 133 133 133 133 353 353 353 195 195 195 497 365 365 365 41 41 41 217 69 69
 360 360 360 99 99 99 99 318 318 133 133 133 133 133 353 353 353 353 195 195
 365 365 365 365 41 41 41 217 69 69 69 360 360 99 99 99 99 236 236 133
 133 133 133 133 353 353 353 353 353 353 365 365 365 365 41 41 41 377 377 377
 377 377 377 99 99 99 236 236 236 236 133 133 133 133 353 353 353 353 1 1
 93 365 365 365 41 41 121 377 377 377 377 377 377 393 393 201 201 236 236 236
 266 517 517 133 353 353 1 1 1 1 93 93 93 93 93 121 121 377 377 377
 377 377 377 393 201 201 201 236 236 236 517 517 517 517 458 1 1 1 1 262
 93 93 93 93 93 292 292 292 377 377 377 377 377 393 201 201 201 201 266 266
 517 517 517 458 458 458 1 1 262 262 262 93 93 93 93 292 292 292 292 377
 377 377 131 201 201 201 201 278 278 266 266 517 517 458 458 183 1 262 262 262
 262 522 522 522 522 292 292 292 292 171 171 171 131 131 131 278 278 278 278 278
 266 517 499 458 183 183 183 262 262 262 522 522 522 522 522 31 31 31 490 171
 171 171 77 131 131 278 278 278 278 278 499 499 499 499 183 183 183 262 262 262
 522 522 522 522 522 31 31 31 31 251 251 251 77 77 131 278 278 278 477 477
 499 499 499 499 499 183 183 183 14 14 522 522 522 522 9 31 31 31 31 251
 251 251 251 77 131 477 477 477 477 477 499 499 499 499 499 518 183 183 14 14
 522 522 9 9 9 265 265 31 31 251 251 251 251 373 373 477 477 477 477 170
 316 316 499 499 518 518 518 518 14 14 519 9 9 9 9 265 265 265 265 251
 251 251 373 373 373 373 477 477 254 254 316 316 316 119 518 518 518 518 518 14
 451 9 9 9 9 265 265 265 265 251 13 13 13 373 373 373 254 254 254 254
 483 483 483 119 518 518 518 518 518 451 451 451 351 351 351 351 265 265 460 460
 13 13 13 13 373 454 454 454 454 254 483 483 483 483 518 518 518 235 235 451
 451 451 351 351 351 351 351 460 460 460 460 13 13 13 373 454 454 454 454 454
 483 483 483 444 447 235 235 235 235 451 451 451 451 351 351 351 228 460 460 460
 460 460 13 58 58 83 83 83 454 454 483 483 444 444 447 447 235 235 235 451
 451 451 451 351 351 228 228 460 460 460 460 460 58 58 58 83 83 83 229 286
 286 286 444 447 447 90 215 235 215 451 451 451 451 451 228 228 228 389 460 341
 341 341 58 58 253 253 229 229 286 286 286 286 444 447 188 90 188 215 215 451
 451 451 451 451 130 130 389 389 341 341 341 341 253 253 253 253 229 229 286 286
 286 11 11 188 188 188 188 188 215 451 451 451 451 130 130 130 130 130 130 341
 341 341 253 253 253 253 60 60 60 286 11 11 11 188 188 188 188 188 188 451
 247 247 247 130 130 130 130 130 496 496 496 496 437 437 253 253 60 60 60 67
 67 67 67 188 188 188 188 188 188 37 247 247 247 130 130 130 130 130 496 496
 496 496 437 437 437 437 60 60 60 67 67 67 67 67 188 188 188 188 247 247
 247 247 247 130 130 130 446 446 496 496 496 496 437 437 437 437 419 419 419 67
 67 67 67 67 32 32 32 188 247 247 247 247 247 247 237 237 237 446 496 496
 398 398 350 350 350 350 419 419 419 203 67 67 67 67 32 32 32 32 247 247
 247 497 497 497 237 237 237 237 415 415 415 398 350 350 350 350 419 419 419 203
 203 203 203 203 32 32 32 362 247 247 497 497 497 497 237 237 237 237 415 415
 415 415 350 350 350 350 419 419 419 203 203 203 203 203 161 161 161 362 362 514
 497 497 497 497 237 237 221 221 415 415 415 415 350 350 350 350 343 343 7 7
 203 203 203 203 161 161 161 362 514 514 497 497 497 497 41 41 221 221 221 69
 360 360 350 350 99 99 343 7 7 7 7 133 133 133 161 353 353 195 195 514
 497 497 497 365 41 41 217 217 69 69 69 69 360 99 99 99 99 318 318 318
 133 133 133 133 353 353 353 353 195 195 365 365 365 365 365 41 217 217 69 69
 69 69 360 99 99 99 99 318 318 318 133 133 133 133 353 353 353 353 195 195
 365 365 365 365 365 41 217 217 69 69 69 69 69 99 99 99 99 318 236 133
 133 133 133 133 353 353 353 353 353 353 365 365 365 365 365 41 217 377 377 377
 377 377 377 99 99 99 236 236 236 236 133 133 133 133 353 353 353 1 1 1
 365 365 365 365 365 377 377 377 377 377 377 377 377 393 393 201 236 236 236 236
 517 517 517 133 353 1 1 1 1 1 93 93 93 365 365 377 377 377 377 377
 377 377 377 393 201 201 201 236 236 517 517 517 517 517 1 1 1 1 1 1
 93 93 93 93 93 292 292 292 377 377 377 377 377 513 513 201 201 201 266 517
 517 517 517 458 458 1 1 1 1 262 93 93 93 93 292 292 292 292 292 377
 377 377 131 131 513 201 201 278 278 517 517 517 458 458 458 183 1 1 262 262
 262 522 522 522 522 292 292 292 292 377 171 171 131 131 131 278 278 278 278 477
 517 517 458 458 183 183 183 262 262 262 14 522 522 522 522 31 31 31 450 450
 171 171 131 131 131 131 477 477 477 477 477 499 499 303 183 183 183 183 14 14
 14 522 522 522 522 31 31 31 31 450 251 251 131 131 131 477 477 477 477 477
 477 499 499 499 183 183 183 183 14 14 14 14 522 9 9 31 31 31 31 450
 251 469 469 131 131 477 477 275 477 477 477 499 499 499 499 518 518 14 14 14
 519 9 9 9 9 31 31 31 31 450 251 251 373 373 373 477 477 477 477 170
 170 119 119 119 518 518 518 518 14 14 519 9 9 9 9 265 265 31 31 450
 251 251 373 373 373 477 477 477 170 170 170 483 119 119 518 518 518 518 518 14
 519 9 9 9 9 265 265 265 109 109 13 13 13 373 373 373 454 454 254 170
 483 483 483 119 518 518 518 518 519 519 451 451 351 351 351 351 265 109 109 109
 13 13 13 13 373 454 454 454 454 454 483 483 483 483 518 518 518 235 235 451
 451 451 351 351 351 351 351 460 460 460 13 13 13 13 373 454 454 454 454 454
 483 483 483 447 447 447 235 235 235 451 451 451 451 351 351 351 228 460 460 460
 460 460 13 58 83 83 83 83 454 286 286 483 447 447 447 447 235 235 235 451
 451 451 451 351 351 351 389 389 460 460 341 460 58 58 58 83 83 83 286 286
 286 286 447 447 447 464 464 235 235 451 451 451 451 451 389 389 389 389 341 341
 341 341 58 58 58 83 83 83 286 286 286 286 447 447 464 90 464 188 188 451
 451 451 451 451 389 389 389 389 341 341 341 341 58 58 58 253 60 60 286 286
 286 11 11 188 188 188 188 188 188 451 428 428 428 130 130 389 389 389 496 496
 496 496 253 253 253 253 60 60 60 286 11 11 11 188 188 188 188 188 188 188
 37 37 37 130 130 130 130 130 496 496 496 496 437 437 253 253 60 60 60 67
 67 67 67 188 188 188 188 188 37 37 37 37 247 130 130 130 446 446 496 496
 496 496 437 437 198 198 198 60 60 67 67 67 67 481 188 188 188 188 37 37
 37 247 247 247 130 446 446 446 496 496 496 496 437 437 198 198 419 419 419 67
 67 67 67 67 152 32 32 37 37 37 247 247 247 247 237 446 446 446 446 496
 496 496 350 350 350 198 419 419 419 203 203 67 67 152 152 32 32 32 37 37
 497 497 497 497 237 237 446 446 415 415 415 415 350 350 350 350 419 419 419 203
 203 203 203 203 32 32 32 362 362 362 497 497 497 497 237 237 237 415 415 415
 415 415 350 350 350 350 419 419 419 203 203 203 203 203 161 161 362 362 362 362
 497 497 497 497 497 221 221 221 415 415 415 350 350 350 350 350 343 318 318 203
 203 203 203 203 161 161 362 362 362 497 497 497 497 497 497 41 221 221 221 69
 69 350 350 350 350 350 318 318 318 318 318 133 133 133 353 353 353 195 195 497
 365 365 365 365 365 41 217 217 69 69 69 69 69 99 99 99 99 318 318 318
 133 133 133 133 353 353 353 353 195 195 365 365 365 365 365 41 217 217 69 69
 69 69 69 99 99 99 99 318 318 133 133 133 133 133 353 353 353 353 353 353
 365 365 365 365 365 41 217 217 69 69 69 69 69 99 99 99 99 318 318 133
 133 133 133 133 353 353 353 353 353 353 365 365 365 365 365 365 217 377 377 377
 377 377 377 377 513 99 236 236 236 133 133 133 133 133 353 353 353 353 1 1
 365 365 365 365 365 365 377 377 377 377 377 377 377 513 513 513 236 236 236 236
 517 517 517 517 353 1 1 1 1 1 85 85 85 85 85 377 377 377 377 377
 377 377 377 513 513 513 201 236 236 517 517 517 517 517 1 1 1 1 1 1
 85 85 85 85 85 292 292 292 377 377 377 377 377 513 513 513 201 315 236 517
 517 517 517 458 458 1 1 1 1 262 85 85 85 85 355 292 292 292 292 377
 377 377 131 513 513 513 201 278 517 517 517 517 517 458 458 183 1 1 262 262
 14 14 85 355 355 292 292 292 292 377 377 377 131 131 513 513 477 477 477 477
 517 517 517 458 183 183 183 17 14 14 14 14 522 355 355 52 52 52 52 450
 450 131 131 131 131 477 477 477 477 477 477 499 309 309 183 183 183 17 14 14
 14 14 522 522 355 31 31 31 450 450 450 450 131 131 131 477 477 477 477 477
 477 499 499 309 183 183 183 14 14 14 14 14 14 9 9 31 31 31 450 450
 450 469 469 131 131 477 477 477 477 477 477 499 499 119 119 518 183 14 14 14
 519 519 9 9 9 9 31 31 450 450 450 450 373 373 373 477 477 477 477 477
 477 119 119 119 119 518 518 518 14 14 519 519 9 9 9 265 31 31 450 450
 450 450 373 373 373 477 477 477 477 170 170 119 119 119 119 518 518 518 519 519
 519 519 9 9 9 265 265 109 109 109 109 13 13 373 373 373 477 454 254 170
 483 483 119 119 119 518 518 518 519 519 519 291 291 351 351 351 109 109 109 109
 109 13 13 13 373 373 454 454 454 454 483 483 483 119 119 518 518 235 519 519
 291 291 291 351 351 351 351 109 109 109 109 13 13 13 83 83 83 454 454 454
 483 483 483 447 447 447 235 235 235 451 291 291 291 351 351 351 351 109 109 109
 460 460 13 58 83 83 83 83 83 286 286 483 447 447 447 447 235 235 235 451
 291 291 451 451 351 351 389 389 341 341 341 460 58 58 58 83 83 83 286 286
 286 286 447 447 447 447 235 235 235 451 451 451 451 451 389 389 389 389 341 341
 341 341 58 58 58 58 83 286 286 286 286 286 447 447 447 90 188 188 235 451
 428 428 428 428 389 389 389 389 341 341 341 341 58 58 58 253 60 60 286 286
 286 11 11 188 188 188 188 188 188 428 428 428 428 428 130 389 389 389 496 496
 496 496 58 253 253 253 60 60 60 286 11 11 11 188 188 188 188 188 188 428
 37 428 428 428 130 130 446 446 496 496 496 496 496 198 198 198 60 60 60 60
 67 67 67 188 188 188 188 188 37 37 37 37 37 37 446 446 446 446 496 496
 496 496 437 198 198 198 198 60 60 67 67 67 67 481 188 188 188 188 37 37
 37 37 37 37 446 446 446 446 446 496 496 496 198 198 198 198 198 419 419 419
 67 67 67 67 152 32 32 37 37 37 37 37 37 250 446 446 446 446 446 18
 18 18 350 350 198 198 419 419 419 203 203 203 67 152 152 32 32 37 37 37
 497 497 497 497 446 446 446 446 415 415 415 415 350 350 350 350 419 419 419 203
 203 203 203 203 32 32 32 362 362 241 497 497 497 497 497 446 446 415 415 415
 415 350 350 350 350 350 419 419 419 203 203 203 203 203 32 32 362 362 362 362
 497 497 497 497 497 221 221 221 415 415 415 350 350 350 350 350 350 318 318 203
 203 203 203 203 203 353 362 362 362 362 497 497 497 497 497 221 221 221 221 69
 69 69 350 350 350 350 350 318 318 318 318 133 133 133 353 353 353 195 195 497
 365 365 365 365 365 375 217 217 69 69 69 69 166 166 210 210 210 318 318 133
 133 133 133 133 353 353 197 197 197 197 365 365 365 365 365 375 217 217 69 69
 69 69 69 99 210 210 210 318 318 133 133 133 133 133 353 353 197 197 197 197
 365 365 365 365 365 375 217 217 69 69 69 69 69 69 210 210 210 133 133 133
 133 133 133 133 353 353 353 197 197 197 365 365 365 365 365 375 377 377 307 307
 307 377 377 377 513 513 315 315 133 133 133 133 133 133 353 353 353 197 197 85
 85 85 365 365 365 355 355 377 377 377 377 377 377 513 513 513 315 315 315 315
 517 517 517 517 353 353 1 1 1 85 85 85 85 85 85 355 355 377 377 377
 377 377 377 513 513 513 315 315 315 315 517 517 517 517 1 1 1 1 1 85
 85 85 85 85 355 355 355 377 377 377 377 377 377 513 513 513 315 315 315 315
 517 517 517 458 458 1 1 1 1 85 85 85 85 85 355 355 355 355 296 296
 377 377 513 513 513 513 315 315 315 315 517 517 517 458 458 17 17 17 17 17
 14 85 85 355 355 355 52 52 52 296 296 296 27 27 513 513 372 372 372 477
 517 517 309 309 309 17 17 17 17 14 14 14 85 355 355 355 52 52 52 450
 296 296 27 27 27 477 372 477 477 477 477 517 309 309 309 17 17 17 17 14
 14 14 14 141 355 355 52 52 450 450 450 450 62 27 27 477 477 477 477 477
 477 477 309 309 309 17 17 17 14 14 14 14 14 9 9 31 31 450 450 450
 450 450 62 62 62 477 477 477 477 477 477 477 119 119 119 17 17 17 14 14
 519 519 9 9 9 31 31 450 450 450 450 450 450 62 62 477 477 477 477 477
 477 119 119 119 119 417 417 417 14 519 519 519 9 9 9 31 31 450 450 450
 450 450 450 62 62 477 477 477 477 477 170 119 119 119 119 417 417 417 519 519
 519 519 9 9 9 265 109 109 109 109 109 13 13 373 373 373 120 120 120 170
 483 119 119 119 119 417 417 417 519 519 519 291 291 351 351 351 109 109 109 109
 109 13 13 35 35 212 212 454 454 454 483 483 483 119 417 417 417 417 519 519
 291 291 291 351 351 351 109 109 109 109 109 13 13 35 35 212 83 454 454 454
 483 483 483 447 447 417 235 235 235 519 291 291 291 351 351 384 384 109 109 109
 109 109 13 58 83 83 83 83 83 286 286 447 447 447 447 447 235 235 235 451
 291 291 291 451 351 384 384 109 109 341 341 460 58 58 58 83 83 83 286 286
 286 447 447 447 447 447 447 235 235 451 291 291 291 451 389 389 389 389 341 341
 341 341 58 58 58 58 83 286 286 286 286 286 447 447 447 188 188 188 122 428
 428 428 428 428 389 389 389 389 341 341 341 341 58 58 58 253 60 60 286 286
 286 11 11 188 188 188 188 188 122 428 428 428 428 428 130 389 389 389 496 496
 496 496 58 198 198 198 60 60 60 286 11 11 11 188 188 188 188 188 122 428
 428 428 428 428 446 446 446 446 496 496 496 496 496 198 198 198 198 60 60 60
 67 67 67 188 188 188 188 188 37 428 428 428 428 250 446 446 446 446 496 496
 496 496 198 198 198 198 198 198 60 67 67 67 67 188 188 188 188 188 37 37
 37 37 250 250 446 446 446 446 446 18 18 18 198 198 198 198 198 419 419 419
 67 67 67 67 152 32 32 37 37 37 241 250 250 250 250 446 446 446 18 18
 18 18 350 198 198 198 198 419 419 203 203 203 67 152 152 32 32 241 241 241
 250 250 250 250 250 446 446 446 18 18 18 18 350 350 350 198 198 419 419 203
 203 203 203 203 32 32 32 362 241 241 250 250 250 250 250 446 446 415 415 415
 415 350 350 350 350 350 210 419 203 203 203 203 203 203 203 32 362 362 362 362
 497 497 497 497 497 221 221 221 415 415 415 350 350 350 350 350 210 210 203 203
 203 203 203 203 205 353 257 362 362 362 497 497 497 497 497 221 221 221 221 69
 69 69 350 350 350 350 210 318 318 318 133 133 133 133 353 353 353 197 197 197
 344 344 344 365 375 375 486 486 486 307 166 166 166 166 210 210 210 210 318 133
 133 133 133 133 353 197 197 197 197 197 344 344 365 365 375 375 486 486 486 307
 166 166 166 166 210 210 210 210 318 133 133 133 133 133 353 197 197 197 197 197
 344 365 365 365 365 375 486 486 307 307 307 166 166 166 210 210 210 315 133 133
 133 133 133 88 353 197 197 197 197 197 85 365 365 365 365 375 486 307 307 307
 307 307 166 166 140 315 315 315 315 315 133 133 133 88 353 353 197 197 197 85
 85 85 85 85 85 355 355 307 307 307 307 307 307 140 140 315 315 315 315 315
 315 315 517 517 353 353 197 197 85 85 85 85 85 85 355 355 355 355 307 307
 307 307 140 140 513 315 315 315 315 315 315 315 517 517 1 1 1 1 85 85
 85 85 85 85 355 355 355 355 296 296 296 296 140 513 513 513 315 315 315 315
 315 394 394 394 17 17 17 17 85 85 85 85 85 355 355 355 355 355 296 296
 296 296 296 513 513 513 315 315 315 315 394 394 394 394 17 17 17 17 17 17
 85 85 85 355 355 355 355 52 296 296 296 296 296 27 513 372 372 372 372 372
 394 394 394 309 309 17 17 17 17 17 14 14 85 355 355 355 52 52 296 296
 296 296 62 27 27 372 372 372 372 372 394 394 309 309 309 17 17 17 17 17
 14 14 141 141 355 355 52 52 450 296 296 296 62 62 62 372 372 372 372 477
 477 477 309 309 309 17 17 17 17 14 14 14 126 141 126 355 31 450 450 450
 450 450 62 62 62 62 477 477 477 477 477 227 119 417 417 417 17 17 17 14
 519 519 126 126 126 126 31 450 450 450 450 450 62 62 62 62 477 477 477 477
 477 119 119 417 417 417 417 417 17 519 519 519 126 126 126 126 31 450 450 450
 450 450 62 62 62 62 120 120 120 120 120 119 119 417 417 417 417 417 519 519
 519 519 126 126 126 126 109 109 109 109 109 450 35 35 35 120 120 120 120 120
 120 119 119 417 417 417 417 417 519 519 471 471 291 126 384 384 384 109 109 109
 109 13 35 35 35 212 212 212 120 120 227 483 227 417 417 417 417 417 519 471
 471 471 291 291 384 384 384 109 109 109 109 109 35 35 35 212 212 212 212 212
 227 483 227 417 417 417 276 276 276 471 291 291 291 291 384 384 384 384 109 109
 109 109 35 35 35 212 212 212 212 3 325 447 447 447 447 276 276 276 276 471
 291 291 291 291 395 384 384 384 279 279 279 528 58 58 58 212 212 212 286 3
 3 447 447 447 225 225 276 276 276 276 291 291 291 291 395 395 384 279 279 279
 279 528 58 58 58 159 159 286 286 286 3 3 225 225 225 225 225 122 122 122
 428 428 428 428 395 395 395 279 279 279 279 528 528 58 58 159 60 60 286 286
 286 11 225 225 225 225 225 122 122 122 428 428 428 428 428 395 304 304 279 279
 279 528 528 198 198 198 198 60 60 286 11 11 225 225 225 225 188 122 122 122
 428 428 428 428 304 304 304 304 496 496 496 496 198 198 198 198 198 198 97 97
 67 67 67 188 226 226 226 122 122 428 428 428 250 250 304 304 304 304 304 496
 496 496 198 198 198 198 198 198 97 97 97 67 67 226 226 226 226 122 428 428
 428 250 250 250 304 304 304 304 18 18 18 18 198 198 198 198 198 198 97 97
 97 289 67 226 226 226 226 226 428 428 250 250 250 250 304 304 304 304 18 18
 18 18 198 198 198 198 198 198 97 97 203 203 289 205 226 32 226 241 241 241
 250 250 250 250 250 304 304 238 18 18 18 18 350 350 350 198 198 198 97 203
 203 203 205 205 205 32 32 250 250 250 250 250 250 250 250 238 238 238 415 415
 415 350 350 350 350 210 210 210 203 203 203 203 205 205 205 205 257 362 250 250
 250 250 250 250 250 238 238 238 238 415 415 194 350 350 210 210 210 210 203 203
 203 203 205 205 205 205 257 257 257 250 250 497 497 250 250 238 238 486 238 69
 194 194 194 350 210 210 210 210 328 328 133 133 133 205 205 257 257 257 197 197
 344 344 344 365 375 375 486 486 486 307 166 166 166 166 210 210 210 210 328 328
 328 328 328 88 88 257 257 197 197 197 344 344 344 365 375 375 486 486 486 307
 166 166 166 166 210 210 210 206 87 87 87 328 88 88 88 197 197 197 197 197
 344 344 344 365 365 375 486 486 307 307 307 166 166 166 504 210 504 206 87 87
 87 328 88 88 88 197 197 197 197 197 85 85 365 365 365 365 486 307 307 307
 307 307 166 140 140 140 315 315 315 315 315 315 88 88 88 197 197 197 197 85
 85 85 85 85 355 355 355 307 307 307 307 307 140 140 140 140 315 315 315 315
 315 315 315 88 88 197 197 197 85 85 85 85 85 85 355 355 355 355 307 307
 307 307 140 140 140 140 315 315 315 315 315 315 315 315 462 462 462 462 85 85
 85 85 85 85 355 355 355 355 296 296 296 296 140 140 140 140 315 315 315 315
 315 394 394 394 462 462 462 462 462 85 85 85 85 355 355 355 355 355 296 296
 296 296 140 140 513 315 315 315 315 315 394 394 394 394 394 462 462 462 17 17
 17 85 85 355 355 355 355 355 296 296 296 296 461 461 461 372 372 372 372 372
 394 394 394 394 17 17 17 17 17 17 17 85 141 141 355 355 355 296 296 296
 296 296 461 461 461 372 372 372 372 372 311 311 311 309 17 17 17 17 17 17
 14 141 141 141 141 355 355 296 296 296 296 296 62 62 62 372 372 372 372 372
 372 311 311 309 17 17 17 17 17 17 14 141 141 141 141 355 355 296 296 296
 296 296 62 62 62 62 372 372 372 372 227 227 227 417 417 417 17 17 17 17
 463 126 126 126 126 126 31 450 450 450 450 450 62 62 62 62 120 120 120 227
 227 227 227 417 417 417 417 417 417 17 463 463 126 126 126 126 126 450 450 450
 450 450 62 62 62 62 120 120 120 227 227 227 227 417 417 417 417 417 417 463
 471 471 126 126 126 126 384 384 127 127 109 35 35 35 35 35 120 120 120 227
 227 227 227 417 417 417 417 417 417 463 471 471 471 126 384 384 384 384 127 127
 109 35 35 35 35 212 212 212 120 227 227 227 227 417 417 417 417 417 417 471
 471 471 471 471 384 384 384 384 384 127 109 35 35 35 35 212 212 212 212 212
 227 227 227 417 417 417 276 276 276 471 471 471 471 384 384 384 384 384 384 384
 528 528 35 35 35 212 212 212 212 3 325 325 325 225 225 276 276 276 276 471
 291 291 291 395 395 384 384 384 384 279 528 528 492 492 159 159 212 212 3 3
 3 325 325 225 225 225 276 276 276 276 428 291 291 395 395 395 395 395 279 279
 279 528 528 159 159 159 159 3 3 3 3 3 225 225 225 225 225 276 122 122
 428 428 428 428 395 395 395 395 279 279 528 528 528 528 159 159 159 3 3 3
 3 3 225 225 225 225 225 122 122 122 428 428 428 428 395 395 304 304 432 432
 432 528 168 168 168 198 159 3 3 3 3 225 225 225 225 225 225 122 122 122
 428 428 428 428 304 304 304 304 304 432 432 528 168 168 168 198 198 97 97 97
 97 289 289 225 226 226 226 122 122 122 428 428 250 250 304 304 304 304 304 438
 438 438 168 168 198 198 198 97 97 97 97 289 289 289 226 226 226 122 122 428
 250 250 250 250 304 304 304 304 304 438 438 438 168 198 198 198 198 97 97 97
 97 289 289 289 226 226 226 226 250 250 250 250 250 250 304 304 304 304 304 438
 438 438 168 168 198 198 198 97 97 97 97 289 289 289 289 226 226 250 250 250
 250 250 250 250 304 304 238 238 238 438 438 438 194 168 210 210 198 97 97 97
 97 289 205 205 205 10 10 250 250 250 250 250 250 250 250 238 238 238 238 238
 194 194 194 194 210 210 210 210 97 328 328 328 205 205 205 10 10 250 250 250
 250 250 250 250 250 238 238 238 238 238 194 194 194 194 210 210 210 210 328 328
 328 328 205 205 205 479 479 257 257 250 250 344 250 250 250 238 238 486 238 123
 194 194 194 194 210 210 210 210 328 328 328 328 328 205 205 479 257 257 257 250
 344 344 344 344 375 486 486 486 486 123 123 123 194 194 210 210 504 206 87 87
 328 328 328 88 88 257 257 257 197 197 344 344 344 365 375 375 486 486 486 307
 166 166 166 194 504 504 504 206 87 87 87 328 88 88 88 88 197 197 197 197
 344 344 344 365 365 486 486 486 307 307 307 166 166 166 504 504 504 206 87 87
 87 328 88 88 88 88 197 197 197 197 85 85 85 85 365 355 486 307 307 307
 307 307 140 140 140 140 504 315 87 87 87 328 88 88 88 88 197 197 197 85
 85 85 85 85 355 355 355 307 307 307 307 307 140 140 140 140 315 315 315 315
 315 315 88 88 88 462 197 101 101 101 85 85 85 85 355 355 355 355 307 307
 307 140 140 140 140 140 315 315 315 315 315 315 394 394 462 462 462 101 101 101
 85 85 85 85 355 355 355 355 296 296 296 140 140 140 140 140 315 315 315 315
 315 394 394 394 462 462 462 462 101 101 85 85 85 355 355 355 355 355 296 296
 296 296 140 140 140 315 315 315 315 315 394 394 394 394 462 462 462 462 17 17
 85 85 85 355 355 355 355 355 296 296 296 296 174 456 456 372 372 372 372 372
 311 311 394 394 462 462 462 17 17 17 17 85 141 141 355 355 355 296 296 296
 296 296 456 456 456 372 372 372 372 372 311 311 311 311 17 17 17 17 17 17
 17 141 141 141 141 355 515 515 296 296 296 296 62 62 62 372 372 372 372 372
 311 311 311 311 17 17 17 17 17 17 463 141 141 141 141 355 515 515 296 296
 296 296 62 62 62 62 157 157 157 157 227 227 227 227 417 417 17 17 17 17
 463 463 126 126 126 146 515 515 296 296 296 296 62 62 62 62 157 157 157 227
 227 227 227 227 417 417 417 417 17 463 463 463 126 126 126 126 146 127 127 127
 450 485 62 62 62 62 120 120 120 227 227 227 227 227 417 417 417 417 463 463
 463 463 126 126 126 126 127 127 127 127 485 485 485 35 35 212 120 120 120 227
 227 227 227 227 417 417 417 417 463 463 471 471 471 126 384 384 384 384 127 127
 485 485 485 35 35 212 212 212 120 227 227 227 227 227 417 417 417 417 463 471
 471 471 471 471 384 384 384 384 384 127 485 485 485 35 35 212 212 212 212 227
 325 325 325 227 417 276 276 276 276 471 471 471 471 384 384 384 384 384 384 528
 528 528 485 35 212 212 212 212 3 3 325 325 325 325 276 276 276 276 276 276
 471 471 471 395 395 395 384 384 528 528 528 528 492 492 159 159 159 3 3 3
 3 325 325 225 225 225 276 276 276 276 526 526 526 395 395 395 395 395 528 528
 528 492 492 159 159 159 159 3 3 3 3 3 3 225 225 225 225 276 276 276
 526 526 526 395 395 395 395 395 528 528 528 492 492 492 159 159 159 3 3 3
 3 3 225 225 225 225 225 122 122 122 526 526 526 526 395 395 395 432 432 432
 432 528 168 168 168 159 159 3 3 3 3 3 225 225 225 225 225 122 122 122
 428 428 526 526 304 304 304 304 432 432 432 528 168 168 168 168 97 97 97 97
 97 289 289 225 226 226 226 271 122 122 250 250 250 250 304 304 304 304 304 438
 438 438 168 168 168 168 97 97 97 97 97 289 289 289 226 226 226 271 271 271
 250 250 250 250 304 304 304 304 438 438 438 438 168 168 168 198 97 97 97 97
 97 289 289 289 289 226 226 271 271 250 250 250 250 250 304 304 304 304 438 438
 438 438 168 168 168 198 97 97 97 97 97 289 289 289 289 383 383 250 250 250
 250 250 250 250 304 304 238 238 238 438 438 438 194 168 95 210 97 97 97 97
 97 289 289 289 10 10 10 10 250 250 250 250 250 250 238 238 238 238 238 238
 438 194 194 194 210 210 210 97 97 328 328 328 205 205 10 10 10 10 250 250
 250 250 250 250 238 238 238 238 238 238 123 194 194 194 210 210 210 210 328 328
 328 328 328 205 10 10 479 257 257 250 191 191 250 250 238 238 238 238 238 123
 123 194 194 194 210 210 210 210 328 328 328 328 328 205 10 479 479 257 257 250
 191 272 272 354 354 486 486 486 486 123 123 123 194 4 504 504 504 206 87 87
 328 328 88 88 88 88 257 391 391 391 272 272 272 272 354 354 486 486 486 123
 123 123 4 4 504 504 504 206 87 87 87 88 88 88 88 88 197 391 391 391
 272 272 272 354 354 486 486 486 307 307 307 123 4 4 504 504 504 206 87 87
 87 51 88 88 88 88 197 391 391 391 85 85 85 85 354 355 486 307 307 307
 307 307 140 140 140 504 206 206 206 87 87 51 88 88 88 88 197 391 391 391
 101 85 85 85 355 355 355 307 307 307 307 140 140 140 140 140 206 315 315 315
 315 315 510 88 510 510 101 101 101 101 101 85 85 85 355 355 355 355 300 300
 300 140 140 140 140 140 315 315 315 315 315 315 510 510 510 462 462 101 101 101
 101 85 85 85 355 355 355 355 300 300 300 140 140 140 140 140 315 315 315 315
 315 394 394 510 462 462 462 462 101 101 85 85 85 355 355 355 355 355 296 59
 59 59 174 140 174 174 315 315 315 104 104 394 394 394 462 462 462 462 17 17
 76 76 76 355 355 355 355 261 59 59 59 59 174 456 174 174 372 372 104 104
 311 311 311 311 462 462 462 17 17 17 76 76 76 141 355 355 261 261 59 59
 59 59 456 106 456 174 372 372 372 311 311 311 311 311 311 17 17 17 17 17
 76 76 141 141 141 355 515 515 296 59 59 59 174 456 174 174 157 157 157 311
 311 311 311 311 17 17 17 17 17 17 76 76 141 141 141 146 515 515 296 296
 296 296 174 62 174 157 157 157 157 157 227 227 227 227 417 417 17 17 17 17
 463 463 463 126 146 146 146 146 43 43 43 43 62 62 62 157 157 157 157 227
 227 227 227 227 417 417 417 417 463 463 463 463 463 126 126 146 146 146 43 43
 43 43 485 62 62 157 157 157 157 227 227 227 227 227 417 417 417 417 463 463
 463 463 463 126 126 146 146 127 127 127 485 485 485 113 113 157 157 120 227 227
 227 227 227 227 417 417 417 417 463 463 463 463 463 380 384 384 384 127 127 134
 485 485 485 113 113 212 212 212 227 227 227 227 227 2 2 2 417 417 463 463
 471 471 471 384 384 384 384 384 127 134 485 485 485 113 212 212 212 212 3 227
 29 325 325 2 2 2 276 276 276 471 471 471 439 384 384 384 384 384 384 528
 528 528 485 159 159 212 212 3 3 3 29 325 325 2 190 190 276 276 276 276
 471 526 395 395 395 395 384 384 528 528 528 492 492 159 159 159 159 3 3 3
 3 325 325 2 190 190 276 276 276 276 526 526 526 395 395 395 395 395 528 528
 528 492 492 159 159 159 159 3 3 3 3 3 325 225 225 225 225 276 276 276
 526 526 526 395 395 395 395 528 432 528 528 492 492 159 159 159 159 3 3 3
 3 3 3 225 225 225 225 122 122 526 526 526 526 526 116 116 116 432 432 432
 432 432 168 168 168 159 159 3 3 3 3 3 3 225 225 225 225 271 271 526
 526 526 526 526 116 116 116 304 432 432 432 432 168 168 168 168 97 97 71 71
 71 71 289 289 383 383 271 271 271 271 271 250 250 250 304 304 304 304 438 438
 438 438 168 168 168 168 97 97 97 97 71 289 289 289 383 383 383 271 271 271
 250 250 250 250 304 304 304 304 438 438 438 438 168 168 168 168 97 97 97 97
 97 289 289 289 383 383 383 271 271 271 250 250 250 250 304 304 304 304 438 438
 438 438 95 95 95 95 97 97 97 97 97 289 289 289 383 383 383 271 271 250
 250 250 250 250 304 238 238 238 438 438 438 438 95 95 95 95 97 97 97 97
 313 313 289 289 10 10 10 10 250 250 103 103 103 250 238 238 238 238 238 438
 438 194 194 194 194 416 416 416 416 313 313 313 313 10 10 10 10 10 10 250
 191 103 103 250 238 238 238 238 238 238 123 194 194 194 194 210 416 416 328 328
 328 328 328 10 10 10 10 10 191 191 191 191 191 354 238 238 238 238 238 123
 123 123 194 194 194 504 206 206 206 328 328 328 328 88 10 10 479 257 191 191
 191 191 354 354 354 354 488 488 5 123 123 123 4 4 4 504 206 206 206 87
 51 51 88 88 88 185 185 391 391 191 191 272 354 354 354 354 488 488 5 5
 123 123 4 4 4 504 206 206 206 87 51 51 51 88 88 88 185 391 391 391
 56 56 354 354 354 354 488 488 5 5 5 4 4 4 4 504 206 206 206 87
 51 51 51 88 88 88 391 391 391 391 56 56 354 354 354 354 488 488 300 300
 300 4 4 4 4 206 206 206 206 206 51 51 51 88 88 405 391 391 391 391
 101 429 429 429 429 468 300 300 300 300 300 300 140 140 140 140 399 399 399 315
 104 51 510 510 510 510 405 391 101 101 101 429 429 429 468 468 468 300 300 300
 300 300 140 140 140 140 399 399 399 104 104 104 510 510 510 510 462 101 101 101
 429 429 429 429 468 468 468 300 300 300 300 140 140 140 140 140 399 399 277 104
 104 104 510 510 510 462 462 462 101 101 429 429 429 468 468 468 468 261 59 59
 59 174 174 174 174 174 315 104 104 104 104 104 368 510 371 462 462 462 17 101
 76 76 76 468 468 468 261 261 59 59 59 174 174 174 174 174 174 104 104 104
 104 368 368 368 371 462 462 17 25 25 76 76 76 76 468 261 261 261 59 59
 59 59 174 174 174 174 174 104 104 104 368 368 368 368 368 17 17 17 25 25
 76 76 76 76 141 261 261 261 59 59 59 174 174 174 174 174 157 157 157 368
 368 368 368 368 368 17 17 17 25 25 76 76 76 141 146 146 146 261 59 59
 59 174 174 174 174 174 157 157 157 157 227 227 227 227 227 175 175 17 17 25