# vtk DataFile Version 2.0
Data set from IO Version 6.4.197.9a0dee2
ASCII

DATASET RECTILINEAR_GRID
DIMENSIONS 31 31 31
X_COORDINATES 31 float
-1.116667 1.116667 3.350000 5.583333 7.816666 10.049999 12.283332 14.516665 16.749998 18.983332 21.216665 23.449997 25.683331 27.916664 30.149996 32.383331 34.616665 36.849998 39.083332 41.316666 43.549999 
45.783329 48.016663 50.249996 52.483330 54.716663 56.949997 59.183331 61.416660 63.649998 65.883324 
Y_COORDINATES 31 float
-1.116667 1.116667 3.350000 5.583333 7.816666 10.049999 12.283332 14.516665 16.749998 18.983332 21.216665 23.449997 25.683331 27.916664 30.149996 32.383331 34.616665 36.849998 39.083332 41.316666 43.549999 
45.783329 48.016663 50.249996 52.483330 54.716663 56.949997 59.183331 61.416660 63.649998 65.883324 
Z_COORDINATES 31 float
-1.116667 1.116667 3.350000 5.583333 7.816666 10.049999 12.283332 14.516665 16.749998 18.983332 21.216665 23.449997 25.683331 27.916664 30.149996 32.383331 34.616665 36.849998 39.083332 41.316666 43.549999 
45.783329 48.016663 50.249996 52.483330 54.716663 56.949997 59.183331 61.416660 63.649998 65.883324 
CELL_DATA 27000
SCALARS FeatureIds int 1
LOOKUP_TABLE default
 154 154 154 154 509 509 509 509 509 406 406 406 406 406 406 514 514 514 514 514
 166 166 166 166 166 109 109 83 83 83 163 163 163 509 509 509 509 509 509 406
 406 406 406 406 406 514 514 514 514 514 166 166 404 404 404 109 109 83 83 83
 163 163 163 509 509 509 509 509 509 406 406 406 406 406 514 514 514 514 514 514
 166 166 404 404 404 404 109 83 83 83 163 163 163 509 509 509 509 509 469 442
 442 406 406 406 514 514 514 173 173 514 166 166 404 404 404 404 109 83 83 83
 449 462 462 509 509 509 515 469 469 469 442 442 384 384 384 514 514 173 285 285
 285 285 404 404 290 290 290 290 449 449 449 462 462 462 509 515 515 469 515 515
 442 384 384 384 384 250 250 250 285 285 285 112 112 112 290 290 290 290 449 449
 462 462 462 462 462 469 469 469 515 369 403 403 384 384 384 250 250 250 250 285
 285 279 279 279 290 290 290 290 449 449 267 267 267 267 267 282 282 486 282 369
 403 403 384 384 384 250 250 250 250 250 279 279 279 279 290 290 290 290 267 267
 267 267 267 267 282 282 282 282 282 493 493 244 384 384 410 410 250 250 250 250
 279 279 279 269 269 269 269 269 267 267 267 267 267 267 282 282 282 282 282 493
 244 244 244 410 410 410 121 121 121 121 424 424 424 424 269 269 269 269 269 267
 267 267 267 267 282 282 282 282 282 282 244 244 104 410 410 410 121 121 121 121
 424 424 424 424 79 79 79 79 79 24 24 356 356 356 466 466 81 282 282 282
 244 168 104 104 104 104 488 488 488 8 8 424 424 119 79 79 79 79 79 24
 356 356 356 356 466 466 466 81 282 282 256 168 168 168 168 168 488 488 488 8
 8 8 8 119 119 79 79 120 120 24 356 356 356 356 466 466 466 466 106 106
 256 256 168 168 168 168 165 110 512 197 8 8 8 119 119 119 120 120 120 120
 356 356 356 356 466 466 466 296 106 106 106 256 168 168 168 165 165 110 110 8
 8 8 8 119 119 119 120 120 120 120 350 350 350 350 466 466 296 296 106 106
 106 78 168 168 165 165 165 110 110 8 8 8 8 119 119 119 120 120 120 181
 350 350 350 350 466 296 296 296 153 153 153 153 236 236 20 20 20 110 110 330
 330 159 159 159 159 159 159 181 181 181 181 350 350 350 346 346 346 153 153 153
 153 153 236 236 20 20 20 20 330 330 330 159 159 159 159 159 159 181 181 181
 181 297 297 346 346 346 346 153 153 153 153 153 236 236 20 20 20 20 330 330
 330 159 159 159 159 159 159 181 181 181 297 297 297 346 346 346 346 346 153 153
 153 153 236 347 20 20 450 450 450 450 330 159 159 159 159 159 159 181 181 181
 297 297 297 199 346 346 346 346 153 153 351 347 347 347 156 156 450 450 450 450
 263 263 263 460 460 460 421 421 505 505 505 297 297 199 199 333 333 333 333 102
 351 347 347 347 156 156 450 450 450 450 263 263 263 460 460 460 421 421 505 505
 287 299 287 199 333 333 333 129 129 351 351 351 347 347 156 156 156 450 450 450
 263 21 21 460 300 300 300 421 505 505 287 299 299 287 129 129 129 129 129 302
 302 302 347 156 156 156 156 450 450 21 21 21 21 61 300 300 300 300 505 287
 287 287 299 299 129 129 129 129 302 302 302 302 46 46 156 156 446 446 446 446
 21 21 61 61 61 300 300 300 287 287 287 287 287 287 129 129 129 129 302 302
 302 302 46 46 46 446 446 446 446 508 508 61 61 61 61 61 300 198 198 287
 329 329 287 520 520 520 520 302 302 302 161 302 46 46 46 446 446 446 446 508
 496 496 61 61 61 61 198 198 198 329 329 329 154 520 520 520 520 520 302 302
 406 406 406 406 406 446 446 446 446 508 496 496 496 61 61 61 109 198 329 329
 329 154 154 154 520 520 520 520 302 406 406 406 406 406 406 406 514 27 27 27
 496 496 508 508 61 109 109 83 83 329 154 154 154 154 509 509 509 509 406 406
 406 406 406 406 406 406 514 514 27 27 27 508 76 508 109 109 109 83 83 83
 154 154 154 154 509 509 509 509 184 184 184 406 406 406 406 514 514 247 247 247
 166 166 166 166 239 239 239 83 83 83 163 163 163 509 509 509 509 509 184 184
 184 406 406 406 406 514 514 514 514 514 166 166 166 166 166 239 239 83 83 83
 163 163 163 509 509 509 509 509 442 442 442 442 406 406 514 514 514 514 514 514
 166 166 166 166 166 239 239 83 83 83 163 163 163 509 509 509 509 509 442 442
 442 442 442 406 514 514 514 514 514 514 166 166 166 166 166 239 239 83 83 83
 462 163 462 509 509 509 515 515 515 442 442 442 442 384 384 514 514 514 250 285
 504 504 504 504 290 290 290 87 87 449 462 462 462 462 509 515 515 515 515 442
 442 442 384 384 384 250 250 250 250 250 504 504 504 504 290 290 290 87 87 449
 462 462 462 462 462 515 515 515 515 369 403 403 384 384 384 250 250 250 250 250
 279 279 279 279 290 290 290 87 87 462 462 462 462 462 282 282 486 486 486 282
 403 403 384 384 384 250 250 250 250 250 279 279 279 279 290 290 290 87 87 462
 462 462 462 267 282 282 282 282 282 493 493 244 384 384 384 250 250 250 250 250
 279 279 279 269 269 269 269 269 87 267 24 267 267 267 282 282 282 282 282 493
 493 244 244 410 410 121 121 121 121 121 424 424 424 269 269 269 269 269 269 267
 24 24 267 267 282 282 282 282 282 493 493 244 104 104 104 121 121 121 121 121
 424 424 424 424 269 269 269 269 269 24 24 24 402 402 402 282 81 81 282 282
 493 104 104 104 104 104 121 121 121 121 8 8 8 8 79 79 79 79 79 24
 24 24 402 402 402 466 81 81 282 282 256 256 104 104 104 104 512 512 512 197
 8 8 8 119 119 79 79 79 120 24 24 356 402 402 402 466 466 296 106 106
 256 256 256 168 168 165 512 512 512 197 8 8 8 119 119 119 120 120 120 24
 356 356 402 402 402 466 296 296 106 106 106 256 256 168 165 165 165 512 512 197
 8 8 8 119 119 119 120 120 120 120 350 350 350 350 402 296 296 296 296 106
 106 78 78 165 165 165 165 512 512 512 8 8 8 159 159 159 120 120 120 181
 350 350 350 350 296 296 296 296 296 507 507 78 236 236 165 165 165 165 330 330
 330 159 159 159 159 159 159 181 181 181 297 297 297 297 346 346 346 153 507 507
 507 153 236 236 236 20 20 330 330 330 330 159 159 159 159 159 159 181 181 181
 297 297 297 297 346 346 346 346 507 507 507 153 236 236 236 20 20 20 330 330
 330 159 159 159 159 159 159 86 181 297 297 297 297 346 346 346 346 346 507 507
 507 153 347 347 347 20 450 450 450 450 255 255 159 159 159 159 159 505 505 297
 297 297 297 199 346 346 346 346 351 351 351 351 347 347 347 450 450 450 450 450
 263 263 263 159 159 159 421 505 505 505 505 297 199 199 199 346 346 129 351 351
 351 351 347 347 347 156 450 450 450 450 263 263 263 255 460 460 421 505 505 505
 299 299 199 199 199 129 129 129 351 351 351 351 347 347 347 156 450 450 450 450
 263 263 21 255 300 300 300 505 505 505 299 299 299 299 129 129 129 129 129 351
 351 351 347 347 156 156 450 450 450 450 21 21 21 61 61 300 300 300 505 505
 299 299 299 299 129 129 129 129 302 302 302 302 46 46 46 446 446 446 446 446
 21 21 61 61 61 61 300 198 198 287 299 299 299 299 520 129 129 302 302 302
 302 302 46 46 46 446 446 446 446 446 496 496 61 61 61 61 198 198 198 198
 329 329 299 520 520 520 520 302 302 302 302 302 46 46 46 446 446 446 446 496
 496 496 61 61 61 61 198 198 198 198 154 154 154 520 520 520 520 520 302 302
 302 406 406 406 46 446 446 446 446 496 496 496 496 496 61 61 198 198 198 329
 154 154 154 154 520 520 520 520 184 184 184 406 406 406 406 406 247 247 247 496
 496 496 496 496 61 83 83 83 83 154 154 154 154 154 509 509 509 520 184 184
 184 406 406 406 406 406 247 247 247 247 496 496 496 496 109 109 83 83 83 83
 154 154 154 154 509 509 509 509 184 184 184 184 13 13 13 514 247 247 247 247
 166 166 166 166 239 239 239 239 83 83 163 163 163 509 509 509 509 509 184 184
 184 184 13 13 13 514 514 514 247 247 166 166 166 166 239 239 239 239 83 83
 163 163 163 509 509 509 509 509 442 442 442 442 13 13 13 514 514 514 514 247
 166 166 166 166 239 239 239 239 83 83 163 163 163 509 509 509 509 442 442 442
 442 442 442 13 13 514 514 514 514 504 504 504 504 504 504 239 239 239 83 83
 462 462 462 509 509 509 515 515 442 442 442 442 442 442 384 514 514 250 250 504
 504 504 504 504 504 290 290 87 87 87 462 462 462 462 509 515 515 515 515 442
 442 442 384 384 384 250 250 250 250 250 504 504 504 504 504 290 290 87 87 87
 462 462 462 462 462 515 515 515 515 170 170 403 384 384 384 250 250 250 250 250
 504 504 504 504 290 290 290 87 87 87 462 462 462 462 462 282 282 486 170 170
 170 403 384 384 384 250 250 250 250 250 279 279 279 279 290 290 290 87 87 87
 462 462 462 462 282 282 282 282 282 170 170 244 384 384 384 250 250 250 250 250
 279 279 279 269 269 269 269 87 87 87 24 462 462 267 282 282 282 282 282 493
 244 244 244 384 384 121 121 121 121 121 279 336 279 269 269 269 269 269 87 24
 24 24 267 402 282 282 282 282 282 282 493 244 104 104 104 121 121 121 121 121
 336 336 336 269 269 269 269 269 24 24 24 24 402 402 402 282 81 81 282 282
 493 104 104 104 104 512 512 512 512 512 336 336 336 8 79 79 79 79 24 24
 24 24 402 402 402 402 81 81 282 282 256 256 104 104 104 512 512 512 512 512
 8 8 8 8 160 160 160 160 24 24 24 402 402 402 402 402 466 296 106 106
 256 256 256 168 165 512 512 512 512 512 8 8 8 8 160 160 160 120 120 24
 253 402 402 402 402 402 296 296 296 106 106 256 256 165 165 165 512 512 512 512
 8 8 8 8 160 160 160 120 120 24 253 350 402 402 402 296 296 296 296 106
 106 78 78 165 165 165 165 512 512 512 8 8 8 8 159 160 160 120 120 72
 72 72 72 44 44 296 296 296 296 507 507 78 236 236 165 165 165 512 330 330
 330 8 159 159 159 159 159 86 181 72 72 72 72 44 44 346 346 296 507 507
 507 153 236 236 236 165 165 330 330 330 330 159 159 159 159 159 86 86 86 72
 297 297 297 44 346 346 346 346 507 507 507 507 236 236 236 20 20 330 330 330
 330 159 159 159 159 159 86 86 86 72 297 297 297 297 346 346 346 346 507 507
 507 351 236 347 236 20 450 450 450 255 255 255 255 159 159 159 86 86 86 297
 297 297 297 199 346 346 346 346 351 351 351 351 347 347 347 450 450 450 450 255
 255 255 255 255 159 159 86 505 505 505 505 297 199 199 199 346 346 129 351 351
 351 351 347 347 347 450 450 450 450 255 255 255 255 255 255 213 505 505 505 505
 505 299 199 199 199 129 129 129 351 351 351 351 347 347 347 450 450 450 450 255
 255 255 255 255 255 300 300 505 505 505 299 299 299 299 129 129 129 129 351 351
 351 351 347 347 156 450 450 450 450 255 21 21 21 61 61 61 300 198 505 505
 299 299 299 299 129 129 129 129 302 302 302 302 46 46 46 446 446 446 446 446
 21 21 61 61 61 61 198 198 198 198 299 299 299 299 520 520 129 302 302 302
 302 302 46 46 46 25 446 446 446 446 496 496 61 61 61 61 198 198 198 198
 154 299 154 520 520 520 520 302 302 302 302 302 46 46 46 25 446 446 446 496
 496 496 496 61 61 61 198 198 198 198 154 154 154 520 520 520 520 520 302 302
 302 184 406 406 46 25 446 446 446 496 496 496 496 496 61 61 198 198 198 198
 154 154 154 154 520 520 520 520 184 184 184 184 406 406 406 247 247 247 247 496
 496 496 496 496 61 239 83 83 83 154 154 154 154 154 509 509 509 509 184 184
 184 184 406 406 406 247 247 247 247 247 496 496 496 496 239 239 239 83 83 83
 154 154 154 154 509 509 284 284 184 184 184 184 13 13 13 13 247 247 247 247
 166 166 26 26 239 239 239 239 83 83 154 163 163 509 509 509 284 284 284 442
 442 442 13 13 13 514 514 247 247 247 166 166 26 26 239 239 239 239 83 83
 163 163 163 509 509 509 284 284 442 442 442 442 13 13 13 514 514 514 514 247
 166 166 26 26 239 239 239 239 83 83 163 163 163 509 509 509 284 442 442 442
 442 442 442 13 13 514 514 514 514 504 504 504 504 504 504 239 239 239 83 87
 411 462 219 219 509 509 515 442 442 442 442 442 442 442 442 472 514 250 504 504
 504 504 504 504 504 290 87 87 87 87 411 462 219 219 219 515 515 442 442 442
 442 442 442 384 384 472 250 250 250 504 504 504 504 504 504 290 87 87 87 87
 462 462 462 219 219 515 515 515 170 170 170 403 384 384 384 250 250 250 250 250
 504 504 504 504 290 290 87 87 87 87 411 462 462 462 462 282 282 282 170 170
 170 403 384 384 384 250 250 250 250 451 451 504 504 504 290 290 87 87 87 87
 411 462 462 462 282 282 282 282 170 170 170 244 384 384 384 250 250 250 451 451
 451 451 279 269 269 269 269 87 87 87 24 24 462 267 282 282 282 282 282 282
 244 244 244 384 384 121 121 121 451 451 451 336 336 269 269 269 269 269 87 24
 24 24 24 402 282 282 282 282 282 282 493 244 104 104 104 512 512 512 512 451
 336 336 336 336 269 269 269 269 24 24 24 24 402 402 402 282 282 282 282 282
 493 104 104 104 104 512 512 512 512 512 336 336 336 336 336 269 160 160 24 24
 24 253 402 402 402 402 81 81 282 1 256 256 7 7 512 512 512 512 512 512
 336 336 336 336 160 160 160 160 253 24 253 253 402 402 402 402 402 296 1 1
 256 7 7 7 512 512 512 512 512 512 8 8 8 8 160 160 160 160 253 253
 253 253 402 402 402 402 296 296 296 106 106 256 7 7 512 512 512 512 512 512
 8 8 8 8 160 160 160 160 253 253 253 253 402 402 402 402 296 296 296 106
 106 78 78 165 165 165 512 512 512 512 8 8 8 8 160 160 160 160 253 253
 72 72 72 44 44 44 296 296 296 507 507 78 236 236 165 165 512 512 512 512
 330 8 159 159 159 159 159 86 72 72 72 72 72 44 44 346 346 296 507 507
 507 153 236 236 236 165 165 512 330 330 330 159 159 159 159 159 86 86 72 72
 72 72 72 44 44 346 346 346 507 507 507 507 236 236 236 20 149 149 149 330
 330 255 159 159 159 159 86 86 72 72 72 72 72 72 346 346 346 346 346 351
 351 351 236 347 236 149 149 149 149 149 255 255 255 255 159 159 86 86 72 72
 72 297 72 72 346 346 346 346 351 351 351 351 347 347 347 450 450 149 149 255
 255 255 255 255 255 213 86 86 491 491 491 297 199 199 346 346 346 129 351 351
 351 351 347 347 347 450 450 450 450 255 255 31 255 255 213 213 213 491 491 491
 491 299 299 199 199 129 129 129 351 351 351 351 444 444 444 450 450 450 450 255
 255 255 255 255 213 213 213 491 491 491 299 299 299 299 129 129 129 129 351 351
 351 351 444 444 444 444 450 450 450 255 255 255 255 255 61 213 213 491 491 491
 299 299 299 299 129 129 129 129 302 302 302 302 444 444 444 25 25 446 446 255
 21 21 61 61 61 61 198 198 198 198 299 299 299 299 520 520 129 302 302 302
 302 302 46 444 25 25 25 446 446 446 496 496 61 61 61 61 198 198 198 198
 154 154 154 520 520 520 520 302 302 302 302 302 46 46 25 25 25 446 446 496
 496 496 496 61 61 61 198 198 198 198 154 154 154 520 520 520 520 520 302 302
 302 184 406 406 25 25 25 446 446 496 496 496 496 496 61 418 198 198 198 198
 154 154 154 154 520 520 520 184 184 184 184 184 406 13 13 247 247 247 247 496
 496 496 496 496 418 418 418 83 83 154 154 154 154 154 509 509 509 184 184 184
 184 184 406 13 13 247 247 247 247 247 496 496 496 418 418 418 239 239 83 154
 154 154 154 154 509 284 284 284 284 322 184 184 13 13 13 13 247 247 247 247
 26 26 26 26 418 418 418 62 62 83 154 163 163 509 509 284 284 284 284 322
 442 442 13 13 13 13 514 247 247 26 26 26 26 26 26 62 62 62 62 83
 163 163 163 509 509 284 284 284 442 442 442 442 442 13 13 13 514 307 307 26
 26 26 26 26 26 62 62 62 62 62 411 219 219 219 509 284 284 442 442 442
 442 442 442 442 13 13 472 307 307 504 504 504 26 26 26 26 62 62 62 411
 411 219 219 219 219 426 284 442 442 442 442 442 442 442 442 472 472 472 472 504
 504 504 504 26 26 200 200 87 87 411 411 219 219 219 219 426 442 442 442 442
 442 442 442 442 472 472 472 472 472 504 504 504 504 504 504 200 87 87 87 411
 411 219 219 219 219 426 316 442 170 170 170 442 442 384 472 472 472 472 386 386
 504 504 504 504 290 290 87 87 87 411 411 411 219 219 219 316 316 316 170 170
 170 170 384 384 472 472 472 472 386 386 386 451 504 504 290 290 87 87 87 411
 411 411 219 219 316 316 316 316 316 170 170 170 494 494 494 472 472 451 451 451
 451 451 451 451 269 269 269 87 411 411 24 183 183 183 316 316 316 316 316 316
 316 494 494 494 494 494 451 451 451 451 451 451 451 269 269 269 269 269 411 411
 24 24 402 402 316 316 316 316 316 316 316 494 494 494 494 512 512 451 451 451
 451 336 336 336 269 269 269 172 24 24 253 253 402 402 402 316 316 316 316 316
 1 7 7 7 512 512 512 512 512 512 336 336 336 336 160 160 160 160 253 253
 253 253 402 402 402 402 316 316 1 1 1 7 7 7 7 512 512 512 512 512
 336 336 336 336 160 160 160 160 253 253 253 253 402 402 402 402 402 1 1 1
 1 7 7 7 7 512 512 512 512 512 8 8 8 160 160 160 160 253 253 253
 253 253 402 402 402 402 210 210 1 1 1 7 7 7 7 512 512 512 512 512
 437 8 8 160 160 160 160 253 253 253 253 253 253 402 402 210 210 210 210 1
 1 7 7 7 165 512 512 512 512 437 437 437 211 160 160 160 160 253 253 253
 72 72 72 44 44 210 210 210 374 507 374 374 179 179 179 512 512 512 437 437
 437 437 211 159 150 150 150 86 72 72 72 72 72 44 44 346 210 210 374 507
 374 374 179 179 179 179 512 512 437 437 437 437 159 159 150 150 150 86 72 72
 72 72 72 72 72 346 346 346 374 374 374 374 179 179 179 179 149 149 149 149
 149 255 255 159 150 150 150 86 72 72 72 72 72 72 72 346 346 346 133 351
 351 124 124 179 124 149 149 149 149 149 255 255 255 255 150 150 86 86 72 72
 491 371 72 72 346 346 346 133 351 351 351 351 444 444 124 149 149 149 149 149
 255 255 255 255 213 213 213 491 491 491 491 491 72 72 346 346 254 254 351 351
 351 351 444 444 444 444 149 149 149 149 255 255 255 255 213 213 213 491 491 491
 491 337 337 337 254 254 254 254 254 351 351 444 444 444 444 444 502 502 149 255
 255 255 255 255 213 213 213 491 491 491 452 337 337 337 337 254 254 254 254 351
 351 444 444 444 444 444 502 502 502 255 255 255 255 255 213 213 213 213 491 491
 452 337 337 337 254 254 254 254 254 302 302 444 444 444 444 25 25 502 502 502
 255 255 61 61 61 213 213 510 261 261 261 337 337 337 201 254 254 254 302 302
 302 302 444 444 25 25 25 446 446 446 496 496 61 61 61 61 198 198 261 261
 261 154 154 201 201 201 271 271 271 302 302 364 444 444 25 25 25 446 446 496
 496 496 496 61 61 61 198 198 198 261 298 154 154 201 201 201 201 271 271 357
 357 184 372 372 372 25 473 473 473 496 496 496 496 496 418 418 418 198 298 298
 298 154 154 201 201 201 201 357 357 357 357 184 372 372 372 372 473 473 473 496
 496 496 496 418 418 418 418 418 298 298 298 154 154 201 201 201 284 284 357 357
 184 184 406 13 13 247 247 247 247 247 496 496 496 418 418 418 418 239 298 298
 272 272 272 272 272 284 284 284 284 322 322 322 13 13 13 307 307 307 307 26
 26 26 26 26 418 418 62 62 62 298 272 272 272 272 284 284 284 284 284 322
 322 442 442 442 13 307 307 307 307 307 26 26 26 26 26 62 62 62 62 298
 272 272 272 272 284 284 284 284 284 442 442 442 442 442 13 307 307 307 307 307
 26 26 26 26 26 62 62 62 62 62 272 219 219 219 284 284 284 284 442 442
 442 442 442 442 442 472 472 307 307 307 26 26 26 26 26 62 62 62 62 62
 411 219 219 219 426 426 426 442 442 442 442 442 442 442 472 472 472 472 472 504
 504 504 504 26 200 200 200 200 411 411 411 219 219 219 426 426 426 442 442 442
 442 442 442 442 472 472 472 472 472 504 504 504 504 504 200 200 200 87 411 411
 411 219 219 219 426 426 426 442 442 442 442 442 442 472 472 472 472 472 386 386
 386 504 504 504 200 200 200 87 411 411 411 411 219 219 426 316 316 316 316 316
 170 338 338 494 472 472 472 472 386 386 386 451 451 152 152 200 200 411 411 411
 411 183 183 183 316 316 316 316 316 316 316 338 494 494 494 472 472 451 451 451
 451 451 451 451 152 152 172 411 411 411 183 183 183 183 316 316 316 316 316 316
 316 494 494 494 494 494 451 451 451 451 451 451 451 451 367 367 172 172 411 411
 183 183 183 183 316 316 316 316 316 316 316 494 494 494 494 451 451 451 451 451
 451 451 451 367 367 367 172 172 253 411 253 253 253 402 402 316 316 316 316 316
 1 7 7 7 7 512 512 512 451 451 451 336 336 336 160 160 172 253 253 253
 253 253 253 402 402 402 316 316 1 1 1 7 7 7 7 512 512 512 512 512
 336 336 336 336 160 160 160 253 253 253 253 253 253 402 402 210 210 210 1 1
 1 7 7 7 7 512 512 512 512 437 437 211 211 160 160 160 160 253 253 253
 253 253 253 402 402 210 210 210 1 1 1 7 7 7 7 512 512 512 437 437
 437 211 211 48 160 160 160 253 253 253 253 253 253 402 210 210 210 210 210 374
 374 374 7 7 7 512 512 437 437 437 437 211 211 211 150 150 150 253 253 253
 72 274 72 72 210 210 210 210 374 374 374 374 179 179 179 179 512 437 437 437
 437 211 211 150 150 150 150 150 253 253 72 274 72 72 72 210 210 210 374 374
 374 374 179 179 179 179 437 437 437 437 437 211 211 150 150 150 150 150 72 72
 72 72 72 72 72 133 133 133 374 374 374 374 124 179 124 124 149 149 149 149
 149 139 139 150 150 150 150 150 72 72 371 371 371 72 72 133 133 133 133 133
 374 124 124 124 124 124 149 149 149 149 149 139 255 255 150 150 150 491 491 371
 371 371 371 371 371 133 133 133 133 133 374 124 124 124 124 124 149 149 149 149
 149 255 255 255 213 213 213 491 491 491 491 371 371 371 371 133 133 133 254 254
 444 444 444 444 444 444 502 149 149 149 149 255 255 255 213 213 213 491 491 491
 491 337 337 337 337 254 254 254 254 254 444 444 444 444 444 444 502 502 502 149
 255 255 255 213 213 213 213 213 491 491 337 337 337 337 337 254 254 254 254 364
 364 444 444 444 444 444 502 502 502 502 255 445 445 213 213 213 510 510 491 491
 261 337 337 337 337 254 254 254 254 364 364 364 444 444 444 444 502 502 502 502
 445 445 445 445 213 510 510 510 261 261 261 261 337 337 201 201 254 254 364 364
 364 364 444 444 444 444 502 502 502 502 445 445 445 430 430 510 510 261 261 261
 261 261 201 201 201 201 271 271 271 364 364 364 372 372 372 372 473 473 473 473
 323 323 323 430 430 418 418 261 261 261 298 298 201 201 201 201 201 271 271 357
 18 18 372 372 372 372 473 473 473 473 323 323 323 323 418 418 418 298 298 298
 298 298 298 201 201 201 201 357 357 357 357 357 372 372 372 372 473 473 473 473
 323 323 323 418 418 418 418 418 298 298 298 272 272 201 201 201 284 284 357 357
 357 357 372 372 372 238 307 473 473 473 323 323 418 418 418 418 418 62 298 298
 272 272 272 272 272 284 284 284 284 322 322 322 238 238 238 238 307 307 307 307
 26 26 26 26 418 418 62 62 62 433 272 272 272 272 272 284 284 284 284 322
 322 442 442 238 238 307 307 307 307 307 26 26 26 26 26 62 62 62 62 433
 433 272 272 272 272 284 284 284 284 442 442 442 442 442 238 307 307 307 307 307
 26 26 26 26 26 62 62 62 62 433 433 272 272 272 426 284 284 284 442 442
 442 442 442 442 472 472 472 307 307 307 26 26 26 26 26 62 62 62 62 433
 411 219 219 426 426 426 426 442 442 442 442 442 442 442 472 472 472 472 472 472
 504 504 26 26 200 200 200 200 411 411 411 219 219 219 426 426 426 442 442 442
 442 442 442 472 472 472 472 472 472 472 504 504 504 200 200 200 200 200 411 411
 411 219 219 219 426 426 426 426 442 442 442 338 338 472 472 472 472 472 472 386
 386 504 152 200 200 200 200 200 411 411 411 411 219 219 426 426 426 316 316 134
 338 338 338 494 472 472 472 472 386 386 386 451 152 152 152 200 200 411 411 411
 411 183 183 183 426 316 316 316 316 134 134 338 494 494 494 472 472 415 451 451
 451 451 152 152 152 152 172 259 259 411 183 183 183 183 183 316 316 316 316 134
 134 494 494 494 494 494 415 415 451 451 451 451 367 367 367 367 172 172 259 259
 183 183 183 183 183 316 316 316 316 134 134 494 494 494 494 494 451 451 451 451
 451 451 367 367 367 367 172 172 259 259 253 183 183 183 183 316 316 316 316 134
 134 494 494 494 494 512 512 451 451 451 451 451 367 367 367 172 172 172 253 253
 253 253 253 301 301 144 144 144 519 1 1 1 7 7 7 512 512 512 512 242
 451 451 336 48 48 172 172 172 253 253 253 253 253 301 301 210 144 519 1 1
 1 7 7 7 7 7 512 512 437 242 437 211 211 48 48 48 160 253 253 253
 253 253 253 301 210 210 210 210 210 1 1 1 7 7 7 7 512 437 437 437
 437 211 211 48 48 48 48 253 253 253 253 253 253 301 210 210 210 210 210 374
 374 374 7 7 12 12 437 437 437 437 437 211 211 211 48 313 313 253 253 253
 253 274 72 72 210 210 210 210 374 374 374 374 374 179 12 12 437 437 437 437
 437 211 211 211 313 313 313 313 253 253 274 274 72 72 210 210 210 133 374 374
 374 374 124 179 124 12 12 437 437 437 437 211 211 313 313 313 313 313 19 72
 371 371 371 371 72 133 133 133 133 374 374 374 124 124 124 124 12 149 149 149
 139 139 139 139 313 313 313 313 371 371 371 371 371 371 371 133 133 133 133 133
 374 124 124 124 124 124 149 149 149 149 139 139 139 139 313 313 313 371 371 371
 371 371 371 371 371 133 133 133 133 133 374 124 124 124 124 124 149 149 149 149
 149 139 139 139 213 213 213 491 491 491 491 371 371 371 371 133 133 133 133 133
 432 124 124 124 124 502 502 149 149 149 149 255 255 255 213 213 213 491 491 491
 349 349 349 349 349 254 254 254 254 432 432 432 444 444 444 502 502 502 502 502
 149 445 445 213 213 213 213 213 491 491 349 349 349 349 349 254 254 254 254 364
 432 432 444 444 444 502 502 502 502 502 445 445 445 445 213 510 510 510 261 261
 261 349 349 349 349 254 254 254 364 364 364 364 444 444 444 502 502 502 502 502
 445 445 445 430 430 510 510 261 261 261 261 261 349 349 201 201 254 254 364 364
 364 364 372 372 372 502 502 502 502 502 445 445 445 430 430 510 510 261 261 261
 261 261 201 201 201 201 271 271 18 364 364 364 372 372 372 372 473 473 473 473
 323 323 323 430 430 418 261 261 261 261 298 298 201 201 201 201 201 18 18 18
 18 18 372 372 372 372 473 473 473 473 323 323 323 323 323 418 418 261 298 298
 298 298 201 201 201 201 201 18 357 357 18 18 372 372 372 372 473 473 473 473
 323 323 323 323 418 418 418 115 298 298 298 272 272 272 201 201 284 284 357 357
 357 18 372 372 372 238 307 307 473 473 220 323 323 418 418 418 115 115 298 298
 272 272 272 272 272 284 284 284 284 284 322 238 238 238 238 238 307 307 307 220
 220 26 146 146 146 62 62 62 62 433 433 272 272 272 237 237 284 284 284 284
 322 442 238 238 238 238 307 307 307 307 26 26 26 146 146 62 62 62 433 433
 433 272 272 272 237 237 284 284 284 442 442 442 442 238 238 238 307 307 307 307
 26 26 26 146 146 62 62 62 433 433 433 272 272 272 426 426 284 284 442 442
 442 442 442 5 5 472 472 307 307 307 26 26 26 146 146 200 62 62 433 433
 411 219 219 426 426 426 426 442 442 442 442 442 442 5 5 472 472 472 472 472
 366 504 295 295 200 200 200 200 200 411 411 219 219 219 426 426 426 426 442 442
 442 442 5 5 5 472 472 472 472 472 504 295 295 295 200 200 200 200 200 411
 411 411 219 219 426 426 426 426 442 442 338 338 338 338 472 472 472 472 472 386
 386 295 295 295 200 200 200 200 411 411 411 183 183 183 426 426 426 316 134 134
 338 338 338 338 472 472 472 472 472 386 386 152 152 152 152 200 200 200 411 411
 183 183 183 183 183 316 316 316 134 134 134 338 338 494 494 472 415 415 415 451
 451 152 152 152 152 152 172 259 259 259 183 183 183 183 183 316 316 316 134 134
 134 338 494 494 494 494 415 415 415 451 451 451 367 367 367 367 172 172 259 259
 183 183 183 183 183 316 316 316 134 134 134 494 494 494 494 494 415 415 407 407
 451 451 367 367 367 172 172 172 259 259 183 183 183 183 144 144 144 144 144 134
 134 494 494 494 494 494 415 407 407 407 407 407 367 367 367 172 172 172 172 253
 253 253 301 301 301 144 144 144 144 1 1 409 7 7 7 7 453 407 407 242
 407 407 407 48 48 172 172 172 253 253 253 253 301 301 301 144 144 519 519 1
 1 7 7 7 7 7 453 453 242 242 242 211 211 48 48 48 140 140 253 253
 253 253 301 301 301 210 210 519 428 428 1 1 7 7 7 12 453 437 437 437
 211 211 211 48 48 48 48 140 253 253 253 253 158 158 210 210 210 210 428 374
 374 374 12 12 12 12 12 437 437 437 211 211 211 48 48 48 48 19 19 253
 253 158 158 158 210 210 210 210 374 374 374 374 12 12 12 12 12 437 437 437
 437 211 211 211 313 313 313 19 19 19 371 371 158 158 210 210 210 133 374 374
 374 374 124 124 12 12 12 437 437 437 437 211 211 211 313 313 313 19 19 19
 371 371 371 371 133 133 133 133 133 374 374 374 124 124 124 12 12 12 149 149
 139 139 139 66 313 313 313 313 19 371 371 371 371 371 371 133 133 133 133 133
 374 124 124 124 124 124 12 149 149 149 139 139 139 66 66 313 313 313 371 371
 371 371 371 371 371 133 133 133 133 133 374 124 124 124 124 124 502 149 149 149
 139 139 139 66 213 213 213 491 491 371 371 371 371 371 133 133 133 133 133 133
 432 124 124 124 124 502 502 502 149 149 149 139 139 213 213 213 213 491 491 491
 349 349 349 349 349 133 254 254 254 432 432 432 444 444 502 502 502 502 502 502
 445 445 445 445 213 213 213 213 52 52 349 349 349 349 349 254 254 254 254 432
 432 432 432 444 502 502 502 502 502 502 445 445 445 445 213 510 510 510 261 349
 349 349 349 349 349 254 254 254 364 364 364 364 171 444 502 502 502 502 502 502
 445 445 445 430 430 510 510 261 261 261 261 349 349 52 52 201 254 364 364 364
 364 364 372 372 372 502 502 502 502 502 445 445 430 430 430 430 261 261 261 261
 261 349 349 201 201 201 18 18 18 18 364 364 372 372 372 473 473 473 473 473
 323 323 323 430 430 430 38 38 261 261 298 480 480 201 201 201 201 18 18 18
 18 18 372 372 372 473 473 473 473 473 323 323 323 323 268 38 38 38 38 298
 298 298 272 201 201 201 201 18 18 18 18 18 372 372 372 355 473 473 473 220
 220 323 323 323 268 418 115 115 298 298 272 272 272 272 201 201 284 284 18 18
 18 18 238 238 238 238 355 307 220 220 220 220 268 268 268 418 115 115 62 298
 248 272 272 272 237 237 237 182 182 344 344 344 238 238 238 238 355 429 220 220
 220 146 146 146 146 146 62 62 180 433 433 272 272 272 237 237 237 237 284 344
 344 344 238 238 238 238 429 429 429 220 220 146 146 146 146 146 180 180 180 433
 433 272 272 237 237 237 237 284 305 305 305 305 157 157 238 238 429 429 307 429
 220 146 146 146 146 146 180 180 180 433 164 164 164 237 237 237 237 305 305 305
 305 305 157 157 5 5 472 307 307 429 366 146 146 146 146 146 180 180 180 433
 164 164 164 426 426 426 426 305 305 305 305 305 5 5 5 5 472 41 41 41
 366 366 295 295 295 295 200 180 180 411 411 164 164 164 426 426 426 516 305 305
 305 305 5 5 5 5 472 41 41 41 366 295 295 295 295 295 200 200 306 411
 411 411 219 219 426 426 426 516 516 352 352 352 338 5 5 472 472 41 41 41
 366 295 295 295 295 295 200 200 306 411 183 183 183 183 399 399 399 516 352 352