# vtk DataFile Version 2.0
Data set from IO Version 6.4.197.9a0dee2
ASCII

DATASET RECTILINEAR_GRID
DIMENSIONS 31 31 31
X_COORDINATES 31 float
-1.116667 1.116667 3.350000 5.583333 7.816666 10.049999 12.283332 14.516665 16.749998 18.983332 21.216665 23.449997 25.683331 27.916664 30.149996 32.383331 34.616665 36.849998 39.083332 41.316666 43.549999 
45.783329 48.016663 50.249996 52.483330 54.716663 56.949997 59.183331 61.416660 63.649998 65.883324 
Y_COORDINATES 31 float
-1.116667 1.116667 3.350000 5.583333 7.816666 10.049999 12.283332 14.516665 16.749998 18.983332 21.216665 23.449997 25.683331 27.916664 30.149996 32.383331 34.616665 36.849998 39.083332 41.316666 43.549999 
45.783329 48.016663 50.249996 52.483330 54.716663 56.949997 59.183331 61.416660 63.649998 65.883324 
Z_COORDINATES 31 float
-1.116667 1.116667 3.350000 5.583333 7.816666 10.049999 12.283332 14.516665 16.749998 18.983332 21.216665 23.449997 25.683331 27.916664 30.149996 32.383331 34.616665 36.849998 39.083332 41.316666 43.549999 
45.783329 48.016663 50.249996 52.483330 54.716663 56.949997 59.183331 61.416660 63.649998 65.883324 
CELL_DATA 27000
SCALARS FeatureIds int 1
LOOKUP_TABLE default
 144 144 124 124 160 160 160 160 160 226 226 226 277 277 277 277 427 427 427 283
 283 283 283 283 283 209 209 452 452 452 452 124 124 124 160 160 331 331 331 226
 226 226 277 277 277 277 384 384 384 283 283 283 283 283 283 209 209 452 452 452
 452 124 124 124 124 160 331 331 331 226 226 226 277 277 277 213 384 384 384 283
 283 283 283 283 283 209 452 452 452 452 452 124 124 124 124 160 331 331 339 339
 339 339 277 277 213 213 213 384 384 283 283 283 283 283 108 313 313 313 452 452
 302 337 337 337 337 336 336 336 339 339 339 339 333 333 213 213 398 384 287 334
 334 334 283 108 108 108 302 313 302 302 337 337 337 337 337 336 336 336 339 339
 339 339 333 333 333 398 398 287 287 334 334 334 334 108 108 108 302 302 302 302
 337 337 337 80 80 339 339 339 339 339 339 339 333 333 361 361 398 287 287 334
 334 334 334 108 108 425 302 302 302 302 337 337 80 80 80 80 339 339 339 339
 339 339 333 361 361 361 361 287 287 287 334 334 334 425 425 425 425 302 302 302
 80 80 80 80 224 432 432 339 339 339 339 339 333 361 361 361 361 287 287 497
 497 334 425 425 425 425 425 410 410 80 80 80 80 224 224 432 432 432 432 432
 432 455 455 361 361 361 361 497 497 497 497 497 425 425 425 425 410 410 410 410
 26 26 26 224 34 34 432 432 432 432 455 455 455 455 361 407 407 407 231 231
 497 497 104 425 425 410 410 410 410 26 26 26 26 26 34 34 34 432 432 432
 455 455 455 455 407 407 407 407 231 231 231 231 104 104 104 410 410 410 410 26
 26 26 26 26 34 34 34 432 178 178 178 455 455 455 407 407 407 407 407 231
 231 104 104 104 104 375 375 375 410 26 95 26 26 26 332 332 332 178 178 178
 178 178 455 407 407 407 407 407 407 407 407 104 104 104 375 375 375 375 95 95
 95 296 296 332 332 332 332 332 178 178 178 238 238 46 46 46 407 407 407 407
 407 104 104 104 375 375 375 301 301 95 296 296 296 332 332 332 332 332 238 238
 238 238 238 46 46 46 46 407 407 407 407 245 245 245 245 375 301 301 301 95
 296 296 296 332 332 332 332 332 175 175 238 238 238 284 46 46 46 407 166 166
 166 245 245 245 245 301 301 301 301 301 297 297 297 332 332 406 406 406 175 175
 252 252 252 284 284 284 284 166 166 166 166 206 206 245 206 206 360 360 301 301
 297 297 297 332 406 406 406 406 252 252 252 252 252 284 284 284 166 166 166 166
 166 206 206 206 206 206 360 360 360 301 424 424 424 424 406 406 406 406 252 252
 252 252 252 140 284 35 166 166 166 166 163 163 206 206 206 206 426 426 426 426
 199 199 199 199 182 182 182 344 344 252 252 252 140 140 140 272 110 110 166 166
 163 504 206 206 206 206 426 426 426 426 199 199 199 182 182 182 182 344 344 344
 344 344 140 140 140 272 110 110 110 256 256 256 206 206 206 206 91 426 91 91
 199 199 199 387 182 182 182 383 383 383 344 383 140 140 140 272 110 110 110 256
 256 256 115 115 206 91 91 91 91 91 199 387 387 387 387 450 450 383 383 383
 383 383 140 140 140 272 110 256 256 256 256 256 115 115 115 91 91 91 91 91
 472 387 387 387 387 79 79 101 101 101 383 383 140 190 190 190 190 256 256 256
 256 256 115 115 204 204 91 91 91 472 472 387 387 387 387 79 79 101 101 101
 101 101 190 190 190 190 190 256 256 256 256 115 115 115 204 204 204 91 472 472
 472 347 387 387 79 79 79 101 101 101 101 101 190 190 190 190 190 256 256 256
 256 115 115 115 204 204 204 420 420 472 420 347 144 113 79 79 79 391 101 101
 101 101 190 190 190 190 190 427 256 256 320 320 320 320 204 204 420 420 420 420
 144 144 144 144 79 160 160 160 160 101 226 226 226 257 257 257 427 427 271 271
 320 320 320 320 381 381 420 420 420 420 144 144 144 144 144 160 160 160 160 226
 226 226 226 277 257 257 427 427 427 427 283 283 283 283 381 381 209 420 420 420
 144 144 144 144 160 160 160 160 160 226 226 226 277 277 277 257 384 384 384 283
 283 283 283 283 381 381 381 381 452 452 452 124 124 124 124 160 160 160 160 226
 226 226 277 277 277 277 384 384 384 283 283 283 283 283 381 381 381 452 452 452
 452 124 124 124 124 160 331 331 331 226 226 277 277 277 277 277 384 384 384 283
 283 283 283 283 335 381 452 452 452 452 452 124 124 124 124 160 331 331 331 339
 339 277 277 277 277 277 384 384 384 283 283 283 283 335 335 335 302 302 452 452
 302 337 337 337 336 336 336 336 336 339 339 333 333 333 333 382 382 382 287 287
 334 283 335 335 335 335 302 302 302 302 337 337 337 337 337 336 336 336 336 339
 339 333 333 333 333 382 382 287 287 287 334 334 335 335 108 108 302 302 302 302
 337 337 337 80 80 336 336 336 339 339 339 333 333 333 333 361 287 287 287 287
 334 334 334 425 425 425 302 302 302 302 337 337 337 80 80 339 339 339 339 339
 339 339 333 333 361 361 287 287 287 287 334 334 425 425 425 425 425 302 302 302
 80 80 224 224 71 432 432 432 432 339 339 339 333 361 361 361 361 287 497 497
 497 497 134 425 425 425 410 410 410 410 26 26 224 71 224 432 432 432 432 432
 432 455 455 455 361 361 497 497 497 497 497 497 497 425 425 425 410 410 410 410
 26 26 26 224 34 34 432 432 432 432 455 455 455 455 388 407 407 407 497 231
 497 497 104 104 104 410 410 410 410 26 26 26 26 26 34 34 34 432 432 432
 455 455 455 455 407 407 407 407 231 231 231 104 104 104 104 104 410 410 410 26
 26 26 26 26 34 34 34 432 178 178 178 455 455 455 407 407 407 407 407 231
 231 104 104 104 104 104 375 375 410 26 26 26 26 26 332 332 332 178 178 178
 178 178 455 407 407 407 407 407 407 407 407 104 104 104 104 375 375 375 95 26
 296 296 296 332 332 332 332 332 178 178 178 178 178 46 46 46 407 407 407 407
 407 104 104 104 104 375 301 301 301 301 296 296 296 332 332 332 332 332 178 178
 178 178 46 46 46 46 46 407 407 407 407 104 104 245 104 301 301 301 301 301
 296 296 296 332 332 332 332 332 175 175 175 238 46 46 46 46 46 407 407 407
 166 245 245 245 245 301 301 301 301 301 296 296 296 332 332 332 332 332 175 175
 175 252 284 284 284 284 46 166 166 166 166 206 206 206 206 206 301 301 301 301
 297 297 297 332 181 181 406 406 175 175 252 252 252 284 284 284 166 166 166 166
 163 163 206 206 206 206 206 360 360 301 199 199 199 199 181 181 181 344 344 344
 252 252 140 140 140 140 166 166 166 166 163 163 206 206 206 206 206 30 30 30
 199 199 199 182 182 182 182 344 344 344 344 344 140 140 140 140 110 110 110 166
 163 163 206 206 206 206 206 30 30 30 199 199 199 182 182 182 182 344 344 344
 344 344 140 140 140 140 110 110 110 110 256 115 206 206 206 206 91 91 91 91
 199 199 199 182 182 182 182 344 344 344 344 344 140 140 140 140 110 110 110 256
 256 115 115 115 206 91 91 91 91 91 199 199 387 387 79 79 79 101 101 101
 101 101 140 140 140 140 110 110 256 256 256 115 115 115 115 91 91 91 91 91
 472 387 387 387 79 79 79 101 101 101 101 101 140 190 190 190 190 256 256 256
 115 115 115 115 204 204 91 91 91 91 472 387 387 387 79 79 79 101 101 101
 101 101 190 190 190 190 190 190 256 256 115 115 115 115 204 204 204 91 91 472
 420 487 487 113 79 79 79 101 101 101 101 101 190 190 190 190 190 190 256 256
 115 115 115 115 204 204 204 420 420 420 420 487 113 113 113 79 79 101 101 101
 101 101 190 190 190 257 257 427 427 320 320 320 320 320 204 204 420 420 420 420
 144 144 144 113 113 160 160 160 101 101 226 226 226 257 257 257 257 427 427 427
 320 320 320 320 381 381 381 420 420 420 144 144 144 144 144 160 160 160 160 226
 226 226 226 277 257 257 427 427 427 427 283 283 320 320 381 381 381 420 420 420
 144 144 144 144 144 160 160 160 160 226 226 226 277 277 277 257 257 384 384 283
 283 283 283 283 381 381 381 381 452 144 144 144 144 144 144 160 160 160 160 226
 226 277 277 277 277 277 384 384 384 283 283 283 283 283 381 381 381 452 452 452
 452 124 124 124 124 160 389 389 389 389 226 277 277 277 277 277 384 384 384 283
 283 283 283 335 335 335 452 452 452 452 452 124 124 124 389 389 389 389 389 389
 339 277 277 277 382 382 382 384 384 283 283 283 335 335 335 335 302 302 452 452
 302 337 337 337 389 389 389 336 336 339 339 333 333 333 382 382 382 382 382 283
 283 283 335 335 335 335 302 302 302 302 337 337 337 337 336 336 336 336 336 339
 339 333 333 333 382 382 382 382 287 287 334 334 335 335 335 335 302 302 302 302
 337 337 337 80 336 336 336 336 447 447 447 333 333 333 333 382 382 287 287 287
 334 334 334 335 425 425 302 302 302 302 337 337 337 224 224 339 339 339 447 447
 447 333 333 333 333 382 382 287 287 287 134 134 134 425 425 425 425 410 302 302
 26 80 224 224 224 224 432 432 432 447 447 72 388 388 388 361 382 287 497 134
 134 134 134 134 425 425 410 410 410 410 26 26 224 224 224 432 432 432 432 432
 72 72 388 388 388 388 407 497 497 497 134 276 276 276 425 410 410 410 410 410
 26 26 26 224 34 34 432 432 432 432 455 455 455 388 388 407 407 407 497 231
 134 293 104 104 104 410 410 410 410 26 26 26 26 26 34 34 34 432 432 432
 455 455 455 455 407 407 407 407 407 231 231 104 104 104 104 104 410 410 410 26
 26 26 26 26 34 34 34 432 178 178 178 455 455 455 407 407 407 407 407 407
 231 104 104 104 104 104 104 410 410 26 26 26 26 26 332 332 332 178 178 178
 178 178 455 407 407 407 407 407 407 407 407 104 104 104 104 104 104 375 301 26
 296 296 296 332 332 332 332 332 178 178 178 178 46 46 46 46 407 407 407 407
 407 104 104 104 104 104 104 301 301 301 296 296 296 332 332 332 332 332 178 178
 178 178 46 46 46 46 46 407 407 407 495 495 104 104 104 104 301 301 301 301
 296 296 296 332 332 332 332 332 175 175 175 175 46 46 46 46 46 407 407 407
 495 495 495 104 104 301 301 301 301 301 296 296 296 332 332 332 332 332 175 175
 175 175 46 46 46 46 46 166 166 166 166 206 206 206 206 206 301 301 301 301
 50 125 125 332 332 181 181 406 175 175 175 252 140 284 284 284 139 139 166 166
 163 163 206 206 206 206 30 30 30 50 50 199 199 199 181 181 181 344 344 344
 344 344 140 140 140 140 139 139 166 36 36 163 206 206 206 206 30 30 30 50
 199 199 199 199 182 182 182 344 344 344 344 344 140 140 140 140 110 110 110 36
 36 163 206 206 206 206 30 30 30 30 199 199 199 182 182 182 182 344 344 344
 344 344 140 140 140 140 110 110 110 36 36 115 24 24 24 206 91 91 91 91
 199 199 199 199 182 182 182 344 344 344 344 344 140 140 140 140 110 110 110 256
 115 115 115 115 471 471 91 91 91 91 199 199 199 79 79 79 79 101 101 101
 101 101 140 140 140 140 110 110 256 256 115 115 115 115 471 471 91 91 91 91
 62 62 62 79 79 79 79 101 101 101 101 101 140 190 190 190 190 256 256 256
 115 115 115 115 204 204 91 91 91 91 62 62 62 79 79 79 79 79 101 101
 101 101 101 190 190 190 190 190 256 256 115 115 115 115 204 204 204 91 91 91
 62 62 496 496 79 79 79 101 101 101 101 101 190 190 190 190 190 190 190 256
 115 115 115 115 204 204 204 420 420 420 420 144 496 496 79 79 79 101 101 101
 101 101 257 257 257 257 257 257 257 320 320 320 320 320 381 204 420 420 420 420
 144 144 144 144 144 160 160 160 101 101 101 226 257 257 257 257 257 427 427 427
 320 320 320 320 381 381 381 420 420 420 144 144 144 144 144 160 160 160 160 226
 226 226 226 257 257 257 257 427 427 427 283 283 283 283 381 381 381 381 420 420
 144 144 144 144 144 160 160 160 160 226 226 307 307 307 257 257 257 257 384 283
 283 283 283 283 381 381 381 456 456 144 144 144 144 144 144 160 389 389 389 507
 226 307 307 307 307 307 384 384 384 283 283 283 283 283 381 381 456 456 456 452
 452 124 124 124 389 389 389 389 389 389 226 307 307 307 307 307 384 384 384 283
 283 283 283 335 335 456 456 456 456 452 452 124 124 218 389 389 389 389 389 389
 389 277 277 307 382 382 382 382 384 283 283 283 335 335 335 335 456 456 456 452
 15 15 15 218 389 389 389 389 389 389 339 333 333 333 382 382 382 382 382 382
 283 283 335 335 335 335 302 302 302 302 15 15 15 15 218 389 389 389 389 447
 447 333 333 333 382 382 382 382 287 287 334 283 335 335 335 335 302 302 302 302
 15 15 15 15 15 336 336 336 447 447 447 333 333 333 382 382 382 382 287 287
 134 134 335 335 335 425 302 302 302 15 15 15 15 15 224 339 339 447 447 341
 447 447 333 333 382 382 382 382 134 134 134 134 134 425 425 425 425 410 302 15
 15 15 15 15 224 224 432 432 447 447 447 72 388 388 388 388 382 134 134 134
 134 134 293 293 425 425 410 410 410 15 15 15 15 224 224 432 432 432 432 447
 72 72 388 388 388 388 328 328 134 134 134 276 293 293 104 410 410 410 410 61
 26 26 26 26 34 34 432 432 432 432 72 72 388 388 388 388 328 328 328 134
 134 293 293 104 104 104 410 410 410 61 26 26 26 26 34 34 432 432 432 432
 455 455 388 388 388 407 407 328 328 134 134 104 104 104 104 104 410 410 410 26
 241 241 241 241 359 359 359 432 178 178 178 455 455 388 407 407 407 407 407 407
 231 104 104 104 104 104 104 104 241 241 241 241 241 241 359 359 359 178 178 178
 178 178 455 83 83 407 407 407 407 407 407 104 104 104 104 104 104 230 230 241
 241 241 241 241 332 332 332 332 178 178 178 178 83 83 83 83 407 407 407 407
 495 495 104 104 104 104 230 230 230 241 241 241 241 332 332 332 332 332 178 178
 178 178 460 460 460 460 460 242 407 407 495 495 495 104 104 104 230 230 230 301
 296 241 241 332 332 332 332 332 175 175 175 175 460 460 460 460 460 242 242 242
 495 495 495 104 104 104 469 469 469 301 50 125 125 332 332 332 332 332 175 175
 175 175 474 460 460 460 460 242 242 36 495 495 206 206 206 469 469 469 469 469
 50 125 125 125 332 181 181 368 175 175 175 474 474 474 460 460 139 139 139 36
 36 36 206 206 206 206 30 30 30 50 50 125 125 125 181 181 181 368 344 344
 344 474 140 140 140 139 139 139 139 36 36 36 206 206 206 206 454 454 30 50
 125 125 125 125 182 182 182 344 344 344 344 344 140 140 140 140 139 139 139 36
 36 24 24 24 24 24 30 30 30 50 125 125 125 182 182 182 182 344 344 344
 344 344 140 140 140 140 110 110 110 36 36 24 24 24 24 24 30 30 30 50
 199 199 199 199 182 182 182 344 344 344 344 344 140 140 140 140 110 110 110 256
 115 115 24 24 24 471 471 91 91 91 62 62 62 501 79 79 79 101 101 101
 101 101 140 140 140 140 110 110 256 256 115 115 115 24 471 471 471 91 91 91
 62 62 62 79 79 79 79 101 101 101 101 101 385 385 190 190 190 256 256 256
 115 115 115 115 471 471 471 91 91 91 62 62 62 62 79 79 79 79 101 101
 101 101 101 190 190 190 190 190 256 115 115 115 115 115 204 204 204 91 91 62
 62 62 62 496 79 79 79 449 101 101 101 101 385 257 257 190 190 190 327 327
 115 115 115 115 204 204 204 420 420 420 62 62 496 496 79 79 79 449 101 101
 101 101 257 257 257 257 257 257 327 327 320 320 320 320 381 381 381 420 420 420
 144 144 144 496 496 79 79 160 101 101 101 101 257 257 257 257 257 257 327 327
 320 320 320 320 381 381 381 420 420 420 144 144 144 144 144 160 160 160 160 226
 226 226 257 257 257 257 257 257 327 327 283 283 283 381 381 381 381 381 420 144
 144 144 144 144 479 479 479 479 507 507 507 307 307 307 307 257 216 216 216 216
 283 283 283 283 456 456 456 456 456 456 144 144 144 144 479 479 479 389 507 507
 507 307 307 307 307 307 216 216 216 216 283 283 283 283 456 456 456 456 456 456
 506 506 506 506 389 389 389 389 389 507 507 307 307 307 307 307 216 216 216 216
 283 283 283 335 456 456 456 456 456 456 452 506 218 218 218 389 389 389 389 507
 507 307 307 307 382 382 382 382 216 216 283 283 335 335 335 456 456 456 456 456
 15 15 15 218 218 389 389 389 389 389 389 333 333 382 382 382 382 382 382 382
 189 189 335 335 335 335 499 499 499 15 15 15 15 15 218 218 389 389 389 447
 447 333 333 382 382 382 382 382 382 189 189 189 236 236 236 236 499 499 15 15
 15 15 15 15 218 218 336 447 447 447 447 447 333 382 382 382 382 382 382 134
 189 189 189 236 236 236 499 499 15 15 15 15 15 15 15 15 447 447 447 447
 447 447 333 382 382 382 382 382 134 134 134 134 134 236 236 236 499 15 15 15
 15 15 15 15 15 221 432 447 447 447 447 72 388 388 388 382 382 328 134 134
 134 134 134 134 236 425 410 61 61 15 61 15 15 15 221 221 432 432 432 447
 72 72 388 388 388 388 328 328 134 134 134 134 134 134 286 410 410 61 61 61
 61 241 241 241 359 34 432 432 432 432 72 72 388 388 388 388 328 328 328 134
 134 134 134 104 104 14 410 61 61 61 241 241 241 241 359 359 359 359 466 466
 466 72 388 388 388 407 328 328 328 328 134 134 104 104 104 14 14 348 348 241
 241 241 241 241 359 359 359 359 466 466 466 466 466 388 83 407 328 328 328 328
 134 104 104 104 104 14 14 14 348 241 241 241 241 241 359 359 359 359 466 466
 466 466 466 83 83 83 407 328 328 328 104 104 104 104 104 14 14 230 230 241
 241 241 241 241 359 359 359 359 466 466 466 466 83 83 83 83 242 242 242 242
 495 495 104 104 104 14 14 230 230 241 241 241 241 241 359 359 359 359 466 466
 466 466 460 460 83 460 242 242 242 242 495 495 495 104 104 14 230 230 230 241
 241 241 241 241 332 332 332 332 466 466 466 460 460 460 460 460 460 242 242 242
 495 495 495 104 104 469 469 469 469 469 125 125 125 125 332 332 332 368 175 175
 175 474 474 460 460 460 460 242 242 242 237 495 495 206 469 469 469 469 469 469
 125 125 125 125 125 368 368 368 368 175 474 474 474 474 229 229 229 139 139 36
 36 237 206 206 206 469 469 469 30 50 125 125 125 125 125 368 368 368 368 344
 474 474 474 474 229 229 229 139 139 36 36 36 24 24 24 89 30 30 30 50
 125 125 125 125 368 368 368 368 368 344 344 474 474 474 229 229 229 139 139 36
 36 24 24 24 24 89 30 30 30 30 125 125 125 125 182 368 368 368 368 344
 344 304 140 140 140 229 110 110 110 36 36 24 24 24 24 89 30 30 30 30
 125 125 125 501 501 368 368 368 368 268 268 304 140 140 140 140 110 110 13 13
 13 24 24 24 24 471 471 91 91 91 62 62 501 501 501 368 368 368 268 268
 268 268 385 385 385 385 405 110 13 13 13 13 24 24 471 471 471 91 91 91
 62 62 62 501 501 79 449 268 268 268 268 268 385 385 385 385 405 405 13 13
 13 310 115 24 471 471 471 91 91 62 62 62 62 62 79 449 449 449 268 268
 268 268 385 385 385 190 190 327 327 310 310 310 310 115 471 471 471 91 62 62
 62 62 62 496 79 449 449 449 449 120 120 268 385 385 385 190 190 327 327 327
 84 84 84 84 471 204 133 133 62 62 105 62 496 496 449 449 449 449 120 120
 120 120 385 257 257 257 257 327 327 327 84 84 84 84 84 133 133 133 420 105
 105 144 144 496 496 449 449 449 120 120 120 120 257 257 257 257 257 327 327 327
 84 84 84 84 381 133 133 133 105 105 105 144 144 144 479 479 479 160 120 120
 120 507 307 307 257 257 257 327 327 327 327 84 84 84 381 133 133 456 456 105
 105 105 506 479 479 479 479 479 507 507 507 507 307 307 307 127 216 216 216 327
 327 392 392 392 456 456 456 456 456 105 506 506 506 506 479 479 479 507 507 507
 507 307 307 307 307 307 216 216 216 216 216 392 392 392 456 456 456 456 456 456
 506 506 506 506 479 479 389 507 507 507 507 307 307 307 307 307 216 216 216 216
 392 392 236 236 456 456 456 456 456 456 506 506 218 218 218 218 389 389 507 507
 507 307 307 307 307 307 216 216 216 216 392 236 236 236 236 456 456 456 456 499
 15 218 218 218 218 218 389 389 389 507 507 307 307 382 382 382 382 382 382 189
 189 189 236 236 236 499 499 499 499 499 15 15 218 218 218 218 218 187 187 447
 447 333 183 382 382 382 382 382 382 189 189 189 236 236 236 236 499 499 499 499
 15 15 15 218 218 218 218 187 447 447 447 447 183 382 382 382 382 382 382 189
 189 189 189 236 236 236 499 499 499 15 15 85 15 15 218 221 221 447 447 447
 447 447 475 475 382 382 382 328 134 134 134 189 189 236 236 236 499 499 15 15
 15 15 15 15 221 221 221 447 447 447 447 72 388 388 185 185 328 328 134 134
 134 134 134 236 236 236 499 61 61 61 61 15 15 15 221 221 221 221 275 275
 275 72 185 185 185 185 328 328 328 134 134 134 134 286 286 286 61 61 61 61
 61 241 241 241 221 221 221 221 466 275 466 72 185 185 185 185 328 328 328 134
 134 134 134 286 286 286 286 348 61 61 241 241 241 241 359 359 359 359 466 466
 466 466 185 185 185 185 328 328 328 328 134 134 134 286 286 14 14 348 348 241
 241 241 241 241 359 359 359 359 466 466 466 466 466 185 185 185 328 328 328 328
 134 104 104 104 14 14 14 14 348 241 241 241 241 241 359 359 359 359 466 416
 466 466 466 288 83 83 242 242 328 328 329 104 104 104 14 14 14 14 230 241
 241 241 241 241 359 359 359 359 466 466 466 466 288 288 83 83 242 242 242 242
 495 495 104 104 14 14 14 230 230 241 241 241 241 241 359 359 359 359 466 466
 466 466 288 288 460 460 242 242 242 242 495 495 104 104 14 14 14 230 230 241
 241 241 241 241 359 359 359 359 466 466 466 466 288 288 460 460 242 242 242 242
 242 495 495 104 14 469 469 469 469 469 132 132 132 132 368 368 368 368 368 289
 474 474 474 474 460 460 460 242 242 237 237 237 237 104 469 469 469 469 469 469
 125 125 125 125 368 368 368 368 368 289 474 474 474 474 229 229 229 139 237 237
 237 237 237 24 469 469 469 469 469 469 125 125 125 125 368 368 368 368 368 368
 474 474 474 474 229 229 229 139 237 237 237 237 24 24 89 89 469 30 30 125
 125 125 125 125 368 368 368 368 368 368 304 474 474 474 229 229 229 139 237 237
 237 24 24 24 89 89 89 30 30 125 125 125 125 501 501 368 368 368 368 368
 304 304 304 304 229 229 229 110 13 13 13 24 24 24 89 89 89 30 30 125
 125 501 501 501 501 368 368 368 368 268 268 304 304 304 140 405 405 110 13 13
 13 13 24 24 89 89 89 89 489 489 501 501 501 501 501 501 368 368 268 268
 268 268 268 385 385 405 405 69 13 13 13 13 13 24 24 89 89 489 489 489
 62 501 501 501 501 501 449 268 268 268 268 268 385 385 385 405 405 69 69 13
 13 13 13 24 203 471 471 489 489 489 62 62 501 501 501 449 449 449 268 268
 268 268 385 385 385 405 405 69 69 13 310 310 310 203 203 203 471 489 489 62
 62 62 62 501 449 449 449 449 449 120 268 268 385 385 385 405 405 327 327 327
 84 84 84 203 203 203 133 133 105 105 105 105 105 496 449 449 449 449 120 120
 120 268 385 385 127 405 327 327 327 327 84 84 84 203 203 133 133 133 105 105
 105 105 105 479 479 449 449 449 120 120 120 120 307 127 127 127 327 327 327 327
 84 84 84 84 133 133 133 133 105 105 105 105 144 479 479 479 479 507 507 507
 507 507 307 307 127 127 327 327 327 327 327 84 84 84 133 133 133 133 456 105
 105 506 506 68 479 479 479 507 507 507 507 507 307 307 127 127 216 216 216 327
 392 392 392 392 456 456 456 456 456 105 506 506 506 68 68 479 479 507 507 507
 507 507 307 307 307 307 216 216 216 216 392 392 392 392 456 456 456 456 456 456
 506 506 506 68 68 479 479 507 507 507 507 507 307 307 307 307 216 216 216 216
 392 392 392 392 456 456 456 456 456 456 506 506 218 218 218 218 218 507 507 507
 507 507 307 307 307 307 216 216 216 216 392 236 236 236 236 499 499 499 499 499
 499 218 218 218 218 218 218 187 187 507 507 507 307 307 382 382 382 88 88 189
 189 236 236 236 236 499 499 499 499 499 15 218 218 218 218 218 187 187 187 187
 187 183 183 183 382 382 382 88 88 189 189 189 236 236 236 499 499 499 499 499
 15 15 218 218 218 218 187 187 187 275 275 183 183 183 183 382 382 88 88 189
 189 189 236 236 236 499 499 499 499 15 15 15 15 218 218 221 221 187 275 275
 275 475 475 475 475 475 382 328 88 134 189 189 236 236 236 236 499 499 499 15
 15 15 15 15 221 221 221 221 275 275 275 275 475 475 185 185 328 328 134 134
 134 134 134 236 236 236 499 499 61 61 61 153 153 221 221 221 221 221 275 275
 275 275 185 185 185 185 328 328 328 134 134 134 286 286 286 286 157 157 61 61
 61 197 241 221 221 221 221 221 275 275 275 275 185 185 185 185 328 328 328 328
 134 329 286 286 286 286 157 157 61 61 241 197 241 241 359 359 359 359 321 321
 321 321 185 185 185 185 328 328 328 328 329 329 286 286 286 14 14 348 348 241
 241 241 241 241 359 359 359 359 466 466 466 466 185 185 185 185 328 328 328 329
 329 329 329 286 14 14 14 14 348 241 241 241 241 241 359 359 359 359 466 466
 466 466 288 288 288 242 242 328 328 329 329 329 329 14 14 14 14 14 14 241
 241 241 241 241 359 359 359 359 466 466 466 466 288 288 288 242 242 242 242 242
 329 329 104 14 14 14 14 14 230 241 241 241 241 241 359 359 359 359 466 466
 466 288 288 288 288 460 242 242 242 242 329 329 104 14 14 14 14 469 469 241
 132 132 132 132 359 359 359 357 357 466 466 288 288 288 288 460 242 242 242 242
 242 237 237 70 14 469 469 469 469 469 132 132 132 132 212 368 368 368 368 289
 56 474 474 474 460 460 242 242 242 237 237 237 237 70 469 469 469 469 469 132
 132 132 132 132 368 368 368 368 368 289 56 474 474 474 229 229 229 242 237 237
 237 237 237 89 89 469 469 469 469 132 125 125 125 125 368 368 368 368 368 289
 56 474 474 474 229 229 229 229 237 237 237 237 24 89 89 89 89 469 469 125
 125 125 125 125 368 368 368 368 368 289 304 304 474 474 229 229 229 229 237 237
 237 237 24 89 89 89 89 30 30 125 125 125 501 501 501 368 368 368 368 368
 304 304 304 304 229 229 229 42 237 13 13 13 24 89 89 89 89 489 489 489
 125 404 501 501 501 368 368 368 368 268 304 304 304 304 405 405 405 42 13 13
 13 13 13 89 89 89 89 489 489 489 404 404 501 501 501 501 368 368 268 268
 268 268 268 385 405 405 405 69 13 13 13 13 13 89 89 89 489 489 489 489
 501 501 501 501 501 501 449 268 268 268 268 268 268 385 405 405 405 69 69 13
 13 13 203 203 203 203 489 489 489 489 62 501 501 501 501 449 449 449 268 268
 268 268 385 385 385 405 405 69 69 69 174 174 203 203 203 203 489 489 489 489
 105 501 501 501 449 449 449 449 449 268 268 268 385 385 405 405 405 69 69 327
 84 84 203 203 203 203 203 489 489 105 105 105 350 501 449 449 449 449 449 120
 120 268 385 127 127 405 327 327 327 327 84 84 84 203 203 203 133 133 105 105
 105 105 105 479 479 449 449 449 449 120 507 507 127 127 127 127 327 327 327 327
 327 84 84 203 203 133 133 133 105 105 105 105 105 479 479 479 479 507 507 507
 507 507 307 127 127 127 127 327 327 327 327 84 84 282 133 133 133 133 105 105
 506 506 506 68 68 479 479 507 507 507 507 507 307 307 127 244 244 10 10 327
 392 392 392 345 345 345 456 456 456 105 506 506 506 66 68 479 378 378 507 507
 507 507 307 307 244 244 244 216 216 392 392 392 392 345 345 345 456 456 456 506
 506 506 506 68 68 479 378 507 507 507 507 507 307 307 244 244 244 216 216 392
 392 392 392 345 345 345 499 456 456 456 279 279 279 218 218 218 187 187 507 507
 507 507 307 307 244 244 244 88 88 392 392 236 236 236 236 499 499 499 499 499
 279 279 218 218 218 218 187 187 187 187 507 507 183 183 183 88 88 88 88 88
 189 236 236 236 236 499 499 499 499 499 499 218 218 218 218 443 187 187 187 187
 187 183 183 183 183 88 88 88 88 88 189 236 236 236 236 499 499 499 499 499
 15 218 218 218 218 443 187 187 187 187 187 183 183 183 475 475 88 88 88 88
 189 189 236 236 236 499 499 499 499 499 15 15 218 218 218 221 221 187 187 275
 275 275 183 475 475 475 88 88 88 88 189 189 236 236 236 499 499 499 499 499
 153 153 153 221 221 221 221 318 275 275 275 275 183 183 475 185 185 328 88 134
 134 134 65 65 236 157 157 157 157 15 153 153 153 221 221 221 221 318 275 275
 275 275 185 185 185 185 185 328 328 329 329 329 286 286 286 157 157 157 157 61
 153 153 153 221 221 221 221 321 275 275 275 321 185 185 185 185 185 328 328 329
 329 329 286 286 286 157 157 157 157 157 197 197 197 28 28 221 221 321 321 321
 321 321 185 185 185 185 328 328 328 329 329 329 286 286 286 286 157 157 157 157
 241 197 241 28 28 28 359 321 321 321 321 321 185 185 185 415 328 328 329 329
 329 329 329 286 286 14 14 14 157 241 241 241 241 241 28 28 359 321 321 321
 321 321 288 288 288 415 242 328 329 329 329 329 329 14 14 14 14 14 241 241
 241 241 241 241 359 359 359 359 466 466 466 288 288 288 288 242 242 242 329 329
 329 329 329 14 14 14 14 14 241 241 241 241 241 241 359 359 359 357 357 466
 288 288 288 288 288 288 242 242 242 242 329 329 329 70 14 14 14 469 469 241
 132 132 132 132 212 212 357 357 357 357 56 288 288 288 288 288 242 242 242 242
 237 237 70 70 70 469 469 469 469 132 132 132 132 132 212 212 357 357 357 357
 56 56 474 474 288 460 242 242 242 63 237 237 70 70 70 469 469 469 469 132
 132 132 132 212 212 368 368 368 368 289 56 56 474 474 229 229 229 242 237 237
 237 237 70 70 70 215 215 215 215 132 132 132 132 212 368 368 368 368 289 289
 56 56 474 474 229 229 42 42 237 237 237 237 237 89 89 89 215 215 215 215
 164 164 501 501 368 368 368 368 368 289 304 304 304 474 229 42 42 42 42 237
 237 237 89 89 89 89 215 215 215 215 125 404 501 501 501 368 368 368 368 304
 304 304 304 304 304 42 42 42 42 13 13 13 89 89 89 89 89 489 489 489
 489 404 404 501 501 368 368 368 368 268 304 304 304 304 304 42 42 42 42 13
 13 13 13 89 89 89 489 489 489 489 489 404 404 501 501 501 368 368 268 268
 268 268 304 304 405 405 405 69 13 13 13 13 13 203 89 422 489 489 489 489
 489 501 501 501 501 501 449 268 268 268 268 268 268 385 405 405 405 69 69 13
 13 13 203 203 203 422 489 489 489 489 350 350 501 501 501 449 449 449 268 268
 268 268 268 385 405 405 405 69 69 69 174 174 203 203 203 203 489 489 489 489
 350 350 350 501 449 449 449 449 449 268 268 268 385 385 405 405 405 69 69 69
 174 174 203 203 203 203 356 356 356 489 350 350 350 501 449 449 449 449 449 268
 268 268 129 127 405 405 405 327 327 327 84 84 203 203 203 203 356 356 356 105
 105 105 350 501 184 449 449 449 507 507 507 507 127 127 127 127 10 327 327 327
 327 84 282 282 282 133 133 133 105 105 105 506 506 506 479 479 479 507 507 507
 507 507 507 127 127 127 10 10 327 327 327 282 282 282 345 133 133 133 105 105
 506 506 506 68 68 378 378 378 378 507 507 507 307 244 244 244 244 10 10 121
 121 392 345 345 345 345 131 131 131 291 506 506 506 68 68 378 378 378 378 507
 507 507 307 244 244 244 244 244 10 121 392 392 345 345 345 345 131 131 131 506
 279 279 279 68 68 378 378 378 378 507 507 507 307 244 244 244 244 244 121 121
 121 392 345 345 345 345 131 131 131 279 279 279 279 218 218 443 443 187 187 151
 507 507 262 244 244 244 244 244 88 121 121 236 236 236 236 499 499 499 499 279
 279 279 218 218 218 443 187 187 187 187 187 187 262 183 244 244 88 88 88 88
 236 236 236 236 236 499 499 499 499 499 279 218 218 218 443 443 187 187 187 187