# vtk DataFile Version 2.0
Data set from IO Version 6.4.197.9a0dee2
ASCII

DATASET RECTILINEAR_GRID
DIMENSIONS 31 31 31
X_COORDINATES 31 float
-1.116667 1.116667 3.350000 5.583333 7.816666 10.049999 12.283332 14.516665 16.749998 18.983332 21.216665 23.449997 25.683331 27.916664 30.149996 32.383331 34.616665 36.849998 39.083332 41.316666 43.549999 
45.783329 48.016663 50.249996 52.483330 54.716663 56.949997 59.183331 61.416660 63.649998 65.883324 
Y_COORDINATES 31 float
-1.116667 1.116667 3.350000 5.583333 7.816666 10.049999 12.283332 14.516665 16.749998 18.983332 21.216665 23.449997 25.683331 27.916664 30.149996 32.383331 34.616665 36.849998 39.083332 41.316666 43.549999 
45.783329 48.016663 50.249996 52.483330 54.716663 56.949997 59.183331 61.416660 63.649998 65.883324 
Z_COORDINATES 31 float
-1.116667 1.116667 3.350000 5.583333 7.816666 10.049999 12.283332 14.516665 16.749998 18.983332 21.216665 23.449997 25.683331 27.916664 30.149996 32.383331 34.616665 36.849998 39.083332 41.316666 43.549999 
45.783329 48.016663 50.249996 52.483330 54.716663 56.949997 59.183331 61.416660 63.649998 65.883324 
CELL_DATA 27000
SCALARS FeatureIds int 1
LOOKUP_TABLE default
 197 197 197 197 306 306 306 306 306 210 210 199 18 18 18 18 44 44 413 413
 340 340 340 194 194 28 433 433 433 197 445 445 445 197 306 306 306 306 210 210
 210 199 199 18 18 44 44 44 413 413 340 340 340 194 194 194 377 377 377 445
 445 445 445 323 323 323 323 306 210 210 199 199 199 18 18 44 44 44 44 413
 413 340 340 194 194 194 377 377 377 445 445 423 423 323 323 323 323 323 210 210
 199 199 199 18 18 44 44 44 6 6 379 379 340 194 194 255 255 255 377 445
 157 157 298 323 323 323 323 323 77 77 77 77 77 18 18 44 44 379 379 379
 379 379 340 194 255 255 255 255 255 100 157 157 298 298 323 323 5 77 77 77
 77 77 77 280 280 280 44 379 379 379 379 379 443 443 255 255 255 520 100 100
 100 298 298 298 5 5 5 5 77 77 366 366 366 280 280 280 280 379 379 379
 379 379 443 443 443 255 255 100 100 100 100 298 298 298 5 5 5 5 366 366
 366 366 366 280 280 280 280 305 379 379 379 443 443 443 443 443 255 100 100 100
 100 224 224 224 5 5 5 5 366 366 366 366 366 280 280 280 280 305 517 517
 517 443 443 443 443 443 443 100 100 100 224 224 224 224 5 5 5 5 515 515
 212 212 180 180 180 180 492 492 517 517 517 517 407 62 62 443 84 84 84 100
 224 224 224 224 5 5 5 5 212 212 212 212 180 180 180 180 180 492 517 517
 517 517 407 407 288 288 84 84 84 84 79 79 79 79 79 238 238 238 212 212
 212 212 180 180 180 180 180 87 517 517 517 517 407 407 288 288 84 84 84 84
 79 79 79 79 79 238 238 238 238 123 212 212 180 180 180 133 133 87 87 87
 186 186 101 101 101 101 101 84 84 79 79 79 79 79 79 238 238 238 238 123
 123 375 375 352 352 352 133 87 87 87 186 186 101 101 101 101 101 152 152 79
 79 79 79 79 79 238 348 348 238 123 123 375 375 352 352 352 133 87 87 87
 87 87 101 101 101 101 101 152 152 152 79 79 79 79 79 348 348 348 348 123
 375 375 375 352 352 352 352 87 87 87 87 87 244 244 244 244 244 152 152 152
 79 79 79 265 47 47 47 47 47 47 264 375 275 275 352 352 352 308 308 308
 308 308 244 244 244 244 244 244 152 152 355 355 265 265 265 47 47 47 47 47
 264 264 275 275 275 487 487 308 308 308 308 137 137 244 244 244 244 244 244 355
 355 355 265 265 265 265 47 47 47 47 264 264 126 126 126 487 487 487 487 196
 196 137 137 137 244 244 244 140 411 355 355 355 265 265 265 265 265 47 47 264
 264 264 126 126 126 126 487 487 487 196 196 137 137 137 244 244 140 140 411 355
 355 274 274 274 265 315 315 315 73 73 25 25 126 126 126 126 487 487 487 196
 196 137 137 137 158 244 411 411 411 411 355 274 274 274 315 315 315 315 73 73
 9 9 9 126 126 126 487 487 390 390 390 137 158 158 158 158 411 411 411 411
 274 274 274 274 315 315 315 490 490 73 73 9 9 126 126 126 350 350 390 390
 390 137 119 119 119 119 511 511 511 511 347 274 274 315 315 315 490 490 490 490
 370 370 370 370 262 262 350 350 350 155 155 155 119 119 119 119 511 511 511 347
 347 37 37 37 429 429 429 490 490 370 370 370 370 370 262 262 262 461 155 155
 155 155 119 119 119 119 511 511 511 347 347 37 37 37 429 429 429 429 161 161
 370 370 370 370 262 262 262 461 461 155 155 155 119 119 119 119 511 146 347 347
 347 37 37 37 37 429 429 161 161 161 161 370 97 97 97 107 461 461 250 250
 155 155 155 119 119 146 146 146 146 347 197 37 37 37 37 37 306 161 161 161
 161 97 97 97 107 107 107 107 250 250 250 250 340 148 148 433 433 433 433 433
 197 197 197 37 37 306 306 306 161 161 161 161 97 97 97 107 107 107 250 250
 250 340 340 340 433 433 433 433 433 433 197 197 197 197 306 306 306 306 306 161
 161 161 97 18 18 18 44 44 413 340 340 340 340 340 340 433 433 433 433 433
 445 445 197 197 306 306 306 306 210 210 210 210 18 18 18 18 18 44 413 340
 340 340 340 194 194 194 377 377 377 445 445 445 445 445 306 306 306 306 210 210
 210 210 18 18 18 18 18 44 413 413 340 340 340 194 194 194 377 377 377 445
 445 445 445 323 323 323 323 323 210 210 210 210 18 18 18 18 44 44 6 6
 6 340 194 194 194 194 377 377 377 445 423 423 423 323 323 323 323 323 210 210
 210 199 18 18 18 18 44 6 6 6 6 379 194 194 194 255 255 377 377 353
 353 423 298 323 323 323 323 323 77 77 77 77 18 18 18 18 44 379 379 379
 379 379 379 194 255 255 255 520 353 353 353 298 298 298 323 323 323 323 77 366
 366 366 366 280 280 280 395 379 379 379 379 379 443 443 443 255 520 520 520 353
 100 298 298 298 5 5 5 5 366 366 366 366 366 280 280 280 395 305 379 379
 379 379 443 443 443 443 520 520 100 100 100 298 298 298 5 5 5 5 366 366
 366 366 366 318 280 280 305 305 305 379 379 443 443 443 443 443 520 100 100 100
 224 224 224 224 5 5 5 5 366 366 366 366 318 318 318 318 305 305 517 517
 517 443 443 443 443 443 443 100 100 100 224 224 224 224 5 5 5 5 515 515
 515 212 318 318 318 318 318 517 517 517 517 517 407 62 62 443 84 84 84 224
 224 224 224 224 5 5 283 283 515 515 515 212 180 180 318 318 318 517 517 517
 517 517 407 407 62 62 84 84 84 84 79 79 79 79 79 238 238 238 238 212
 212 212 180 180 180 133 133 133 517 517 517 517 407 407 288 84 84 84 84 84
 79 79 79 79 79 238 238 238 238 123 123 123 375 180 180 133 133 133 186 186
 186 186 407 101 101 101 101 84 122 79 79 79 79 79 79 238 238 238 238 123
 123 375 375 375 352 133 133 133 186 186 186 186 101 101 101 101 101 122 122 122
 79 79 79 79 79 238 238 238 238 123 123 375 375 375 352 352 133 133 186 186
 186 186 101 101 101 101 101 152 122 79 79 79 79 79 79 238 238 238 238 123
 375 375 375 375 352 352 133 308 308 308 308 308 244 244 244 244 244 244 152 152
 160 79 79 265 47 47 47 47 47 437 375 375 375 417 417 417 308 308 308 308
 308 308 244 244 244 244 244 244 160 160 160 160 265 265 265 265 47 47 47 437
 437 437 417 417 417 417 487 308 308 308 308 137 137 244 244 244 244 244 160 160
 160 160 265 265 265 265 265 321 321 437 437 437 437 417 417 417 487 487 308 196
 196 137 137 137 244 244 244 140 140 160 355 355 265 265 265 265 265 321 321 437
 437 437 437 126 126 126 487 487 196 196 196 137 137 137 244 244 140 140 140 160
 355 274 274 265 265 315 315 315 73 73 9 9 9 126 126 126 487 196 196 196
 196 137 137 137 158 244 140 140 140 411 74 274 274 274 315 315 315 315 73 73
 73 9 9 126 126 126 337 487 390 390 390 137 137 119 119 119 140 411 411 74
 74 274 274 315 315 315 315 490 490 73 73 9 9 9 126 262 262 350 390 390
 390 137 119 119 119 119 511 511 511 74 74 274 274 315 315 315 490 490 490 490
 370 370 370 370 262 262 262 155 155 155 155 155 119 119 119 119 511 213 511 74
 74 37 37 37 429 429 490 490 490 370 370 370 370 370 262 262 262 155 155 155
 155 155 119 119 119 119 511 511 511 74 347 37 37 37 37 429 429 490 161 161
 370 370 370 370 367 367 262 155 155 155 155 155 155 119 119 119 146 146 146 347
 37 37 37 37 37 429 429 161 161 161 370 370 370 97 107 107 262 155 155 155
 155 155 155 148 148 148 146 146 146 146 197 37 37 37 37 37 306 161 161 161
 161 370 97 97 107 107 107 107 250 250 250 250 250 148 148 148 433 146 146 146
 197 197 197 37 37 306 306 306 161 161 161 161 97 97 107 107 107 107 250 250
 250 340 340 148 148 148 433 433 433 433 197 197 197 197 306 306 306 306 161 161
 161 161 18 18 18 18 18 18 413 340 340 340 340 194 148 433 433 433 433 433
 445 445 445 445 306 306 306 306 210 210 210 18 18 18 18 18 18 18 413 340
 340 340 340 194 194 194 377 377 377 445 445 445 445 445 306 306 306 306 210 210
 210 210 18 18 18 18 18 18 413 340 340 340 194 194 194 194 377 377 377 445
 445 445 445 323 323 323 323 323 210 210 210 210 18 18 18 18 18 18 6 6
 6 340 194 194 194 194 377 377 377 445 353 423 445 323 323 323 323 323 271 271
 271 271 18 18 18 18 18 379 6 6 379 379 194 194 194 255 255 377 353 353
 353 353 298 323 323 323 323 323 271 271 271 271 18 18 18 18 379 379 379 379
 379 379 379 443 255 255 255 353 353 353 353 298 298 298 323 323 323 323 77 366
 366 366 366 18 395 395 395 395 379 379 379 379 443 443 443 443 520 520 353 353
 353 298 298 298 5 5 5 5 366 366 366 366 366 395 395 395 395 395 379 379
 379 379 443 443 443 443 520 353 353 353 353 298 298 298 5 5 5 5 366 366
 366 366 366 318 318 318 395 395 395 379 379 443 443 443 443 443 443 353 353 353
 224 224 224 224 5 5 5 5 366 366 366 366 318 318 318 318 318 317 517 517
 517 443 443 443 443 443 443 84 100 224 224 224 224 224 5 5 5 283 515 515
 515 515 318 318 318 318 317 317 317 517 517 517 407 62 62 443 84 84 84 224
 224 224 224 224 224 5 283 283 283 515 515 515 318 318 318 318 317 317 317 517
 517 517 407 407 62 62 84 84 84 84 224 224 224 224 224 283 283 283 283 283
 515 127 127 318 180 133 133 133 133 517 517 517 407 407 62 62 84 84 84 84
 79 79 79 79 79 238 283 283 283 123 123 123 375 127 133 133 133 133 133 186
 186 186 407 101 101 101 122 122 122 122 79 79 79 79 79 238 238 238 238 123
 123 375 375 375 133 133 133 133 186 186 186 186 186 349 349 349 349 122 122 122
 79 79 79 79 79 238 238 238 238 123 375 375 375 375 352 133 133 133 186 186
 186 186 349 349 349 349 349 122 122 122 79 79 79 79 79 238 238 238 238 123
 375 375 375 375 352 352 133 308 308 308 308 206 244 244 349 349 244 244 152 122
 160 160 79 265 265 47 47 47 321 437 375 375 375 417 417 417 417 308 308 308
 308 308 244 244 244 244 244 244 160 160 160 160 160 265 265 265 265 321 321 437
 437 437 417 417 417 417 417 308 308 308 308 137 137 244 244 244 244 244 160 160
 160 160 265 265 265 265 265 321 321 437 437 437 417 417 417 417 337 337 308 196
 196 137 137 137 244 244 244 140 160 160 160 265 265 265 265 265 265 321 321 437
 437 437 437 417 417 417 337 337 196 196 196 137 137 137 244 244 244 140 140 160
 74 274 90 265 265 265 315 315 73 73 437 437 437 331 331 331 337 337 196 196
 196 137 137 137 401 401 401 140 140 160 74 74 90 90 315 315 315 315 73 73
 73 9 9 331 331 337 337 337 390 390 390 137 137 119 401 401 401 140 74 74
 74 74 90 90 315 315 315 490 490 490 9 9 9 9 331 337 337 337 390 390
 155 155 119 119 119 401 511 511 74 74 74 74 274 315 315 315 490 490 490 490
 370 370 370 370 262 262 262 155 155 155 155 155 119 119 119 119 511 511 511 74
 74 74 464 37 315 490 490 490 490 490 370 370 370 370 262 262 262 155 155 155
 155 155 119 119 119 119 511 511 511 74 74 37 37 37 64 64 490 490 161 161
 370 370 370 370 262 262 262 155 155 155 155 155 155 119 119 148 511 146 511 74
 37 37 37 37 64 64 64 161 161 161 161 370 370 370 107 107 107 155 155 155
 155 155 155 148 148 148 146 146 146 146 373 37 37 37 64 64 64 161 161 161
 161 161 370 107 107 107 107 107 250 250 250 155 155 148 148 148 146 146 146 146
 197 197 197 37 64 64 64 161 161 161 161 161 18 18 18 107 107 107 250 250
 250 340 340 148 148 148 433 433 433 36 197 197 197 197 306 306 306 306 161 161
 161 161 18 18 18 18 18 18 250 340 340 340 340 148 148 148 433 433 433 36
 445 445 445 445 364 306 306 306 95 95 95 18 18 18 18 18 18 18 18 340
 340 340 340 194 194 194 377 377 36 36 445 445 445 445 323 306 306 306 95 95
 95 95 18 18 18 18 18 18 18 340 340 340 340 194 194 194 377 377 377 445
 445 445 445 323 323 323 323 323 271 271 271 18 18 18 18 18 18 18 6 6
 6 340 194 194 194 194 377 377 377 445 353 378 378 323 323 323 323 323 271 271
 271 271 18 18 18 18 18 379 379 379 379 379 194 194 194 255 353 353 353 353
 353 378 378 323 323 323 323 323 271 271 271 271 18 18 18 18 379 379 379 379
 379 379 379 443 255 255 353 353 353 353 353 353 378 378 323 323 323 323 271 271
 271 271 18 18 395 395 395 395 379 379 379 379 443 443 443 443 520 353 353 353
 353 353 298 298 5 5 5 5 366 366 366 366 366 395 395 395 395 395 395 379
 379 379 443 443 443 443 353 353 353 353 353 353 298 298 5 5 5 5 366 366
 366 366 318 318 318 318 395 395 395 379 379 379 443 443 443 443 443 353 353 353
 224 224 224 224 5 5 5 5 366 366 366 366 318 318 318 318 317 317 317 517
 517 443 443 443 443 443 443 353 353 224 224 224 224 224 5 5 283 283 283 515
 515 127 127 318 318 318 317 317 317 517 517 517 443 443 443 443 84 84 84 224
 224 224 224 224 224 283 283 283 283 283 515 127 127 127 318 318 317 317 317 517
 517 517 407 309 62 62 84 84 84 84 224 224 224 224 283 283 283 283 283 283
 283 127 127 127 127 133 133 133 133 184 517 309 309 309 309 309 84 84 84 84
 79 79 79 79 79 283 283 283 283 283 123 127 127 127 381 133 133 133 184 184
 186 186 309 309 349 349 122 122 122 122 79 79 79 79 79 238 283 283 283 123
 123 375 375 381 381 381 133 184 184 184 186 186 349 349 349 349 349 122 122 122
 79 79 79 79 79 238 238 238 238 123 375 375 375 375 381 184 184 184 184 184
 186 206 349 349 349 349 349 122 122 122 79 79 79 79 265 265 238 238 238 123
 375 375 375 375 375 184 184 184 184 184 206 206 206 349 349 349 349 122 122 122
 160 160 79 265 265 265 321 321 321 437 375 375 375 417 417 417 184 308 308 308
 308 206 301 301 244 244 244 63 63 160 160 160 160 265 265 265 321 321 321 437
 437 437 417 417 417 417 337 337 308 308 308 137 137 244 244 244 244 63 63 160
 160 160 265 265 265 265 321 321 321 437 437 437 331 417 417 331 337 337 337 196
 196 137 137 137 244 244 244 63 63 160 160 160 265 265 265 265 265 321 321 437
 437 111 111 331 331 331 337 337 337 196 196 137 137 137 244 244 244 140 140 160
 74 90 90 90 265 265 265 321 321 437 437 111 331 331 331 331 337 337 337 196
 196 137 137 137 401 401 401 140 74 74 74 74 90 90 90 315 315 315 73 73
 73 331 331 331 331 331 337 337 337 390 390 137 137 119 401 401 401 401 74 74
 74 74 90 90 315 315 315 490 490 490 9 9 331 331 331 331 337 337 390 390
 155 155 119 119 401 401 401 511 74 74 74 74 464 464 464 315 490 490 490 490
 370 370 370 370 254 254 155 155 155 155 155 155 119 119 119 401 511 511 74 74
 74 74 464 464 464 464 490 490 490 490 370 370 370 370 254 254 254 155 155 155
 155 155 343 343 343 343 511 511 74 74 74 464 464 464 464 64 64 64 490 161
 370 370 370 370 254 254 254 155 155 155 155 155 343 343 343 343 343 146 74 74
 464 464 464 464 64 64 64 64 161 161 161 370 370 370 254 254 254 155 155 155
 155 155 343 148 148 148 146 146 146 74 373 373 373 64 64 64 64 64 161 161
 161 161 370 107 107 107 107 155 155 155 155 155 343 148 148 148 148 146 146 36
 373 373 373 64 64 64 64 64 161 161 161 161 412 412 18 18 107 155 250 250
 250 340 148 148 148 148 148 36 36 36 36 373 373 64 64 64 64 64 161 161
 161 412 412 18 18 18 18 18 249 340 340 340 340 148 148 148 148 36 36 36
 36 320 320 320 364 364 364 364 95 95 95 412 412 412 18 18 483 483 483 249
 249 394 394 194 194 194 408 36 36 36 320 320 320 320 364 364 364 95 95 95
 95 95 412 18 18 18 483 483 483 249 394 394 394 394 194 194 408 377 36 36
 378 378 320 320 323 323 323 95 95 95 95 95 18 18 18 18 483 483 483 249
 394 394 394 394 194 194 408 377 353 353 378 378 378 378 323 323 323 441 271 271
 271 271 18 18 18 18 483 483 379 379 379 394 394 394 194 353 353 353 353 353
 378 378 378 378 323 323 323 441 271 271 271 271 18 18 18 18 379 379 379 379
 379 379 379 409 409 353 353 353 353 353 378 378 378 378 378 323 323 441 51 51
 51 51 513 513 513 395 395 395 379 379 379 379 443 409 443 353 353 353 353 353
 378 378 378 378 378 5 5 51 51 51 51 51 513 513 513 395 395 395 395 379
 379 379 443 443 443 443 353 353 353 353 378 378 378 378 378 5 474 51 366 366
 51 513 513 513 513 318 395 395 395 379 379 379 443 443 443 443 443 353 353 353
 378 378 378 378 5 474 474 283 51 366 51 513 513 513 513 318 317 317 317 317
 517 443 443 443 443 443 443 353 353 353 224 224 224 224 5 283 283 283 283 216
 127 127 127 127 318 318 317 317 317 517 517 309 309 443 309 309 84 39 39 39
 224 224 224 224 283 283 283 283 283 283 127 127 127 127 127 127 317 317 317 317
 517 309 309 309 309 309 84 39 39 39 33 33 33 283 283 283 283 283 283 283
 127 127 127 127 127 127 184 184 184 184 184 309 309 309 309 309 309 84 39 39
 33 33 33 33 283 283 283 283 283 283 127 127 127 127 381 381 184 184 184 184
 184 309 309 309 309 309 349 122 122 33 33 33 33 33 33 283 283 283 283 311
 311 127 127 381 381 381 184 184 184 184 184 206 309 309 349 349 349 122 122 33
 33 33 33 33 33 238 238 238 238 311 311 375 375 381 381 184 184 184 184 184
 206 206 206 349 349 349 349 122 122 33 33 33 33 33 33 265 93 238 66 66
 375 375 375 177 177 177 184 184 184 184 206 206 206 301 349 349 349 349 33 33
 334 33 33 265 265 265 321 321 66 66 66 331 331 331 331 177 177 177 308 308
 206 206 301 301 301 244 244 63 63 334 334 334 201 265 265 265 321 321 321 66
 331 331 331 331 331 331 337 337 337 308 308 206 301 301 301 244 244 63 63 334
 334 334 265 265 265 265 321 321 321 437 331 331 331 331 331 331 337 337 337 337
 196 137 301 301 301 244 244 63 63 334 334 334 265 265 265 265 265 321 321 437
 111 331 331 331 331 331 337 337 337 196 196 137 137 137 244 244 244 63 63 334
 74 90 90 90 90 265 265 321 321 437 331 331 331 331 331 331 337 337 337 337
 196 137 137 401 401 401 401 401 74 74 74 74 90 90 90 315 315 315 519 519
 331 331 331 331 331 331 337 337 337 337 390 137 137 401 401 401 401 401 74 74
 74 74 90 90 464 464 315 490 490 490 519 331 331 331 331 331 434 434 434 434
 155 343 343 343 401 401 401 401 74 74 74 464 464 464 464 464 490 490 490 490
 370 370 331 331 331 434 434 434 434 155 155 343 343 343 343 343 401 511 74 74
 74 464 464 464 464 464 64 490 490 490 370 370 370 254 254 254 434 434 155 155
 155 343 343 343 343 343 343 74 74 74 464 464 464 464 464 64 64 64 64 161
 370 370 370 370 254 254 254 155 155 155 155 343 343 343 343 343 343 369 74 74
 464 464 464 464 64 64 64 64 64 161 161 370 370 245 245 245 245 155 155 155
 155 343 343 343 343 343 343 369 369 74 373 373 373 64 64 64 64 64 64 161
 161 412 412 412 245 245 245 155 155 155 155 343 343 343 343 343 343 36 36 36
 373 373 373 64 64 64 64 64 64 161 161 412 412 412 412 245 245 249 249 249
 249 249 343 148 148 148 148 36 36 36 36 373 373 64 364 364 64 64 64 161
 161 412 412 412 412 18 18 249 249 249 249 249 471 471 148 148 36 36 36 36
 36 320 320 320 364 364 364 95 95 95 95 412 412 412 412 412 483 483 249 249
 249 394 394 394 394 408 408 408 36 36 320 320 320 320 364 364 364 95 95 95
 95 95 412 412 412 483 483 446 483 249 394 394 394 394 394 408 408 408 408 36
 320 320 320 320 320 364 441 441 95 95 95 95 412 18 18 483 483 483 483 394
 394 394 394 394 394 408 408 408 408 353 378 378 378 378 378 441 441 441 441 95
 95 95 412 18 18 483 483 483 483 394 394 394 394 394 394 475 475 475 353 353
 378 378 378 378 378 441 441 441 441 95 51 51 513 513 18 483 483 483 405 405
 405 394 394 409 409 475 475 475 353 353 378 378 378 378 378 378 441 441 51 51
 51 51 513 513 513 182 395 405 405 405 405 405 409 409 409 475 475 475 353 353
 378 378 378 378 378 378 51 51 51 51 51 51 513 513 513 182 395 395 405 405
 405 405 409 409 409 475 475 475 353 378 378 378 378 378 378 474 474 51 51 51
 51 51 513 513 513 182 182 395 405 405 405 405 409 409 409 475 475 475 353 378
 378 378 378 378 474 474 474 474 51 51 51 51 513 513 513 182 317 317 317 317
 405 147 147 147 147 147 475 39 39 39 39 378 406 406 474 474 474 474 474 216
 216 127 127 513 513 318 317 317 317 517 388 309 309 309 309 309 39 39 39 39
 39 39 406 406 283 283 283 283 216 216 216 127 127 127 127 127 317 317 317 184
 388 309 309 309 309 309 309 39 39 39 39 33 33 33 283 283 283 283 283 216
 127 127 127 127 127 127 184 184 184 184 184 309 309 309 309 309 309 39 39 39
 33 33 33 33 33 283 283 283 283 311 311 127 127 127 127 184 184 184 184 184
 184 309 309 309 309 309 309 458 458 33 33 33 33 33 33 283 283 283 311 311
 311 311 127 127 381 184 184 184 184 184 184 184 309 309 349 349 349 458 458 33
 33 33 33 33 33 93 93 93 311 311 311 311 127 177 177 177 184 184 184 184
 206 206 31 301 349 349 349 33 33 33 33 33 33 33 33 93 93 93 66 66
 311 442 177 177 177 177 177 184 184 184 31 31 31 301 301 349 349 33 33 33
 334 33 33 33 33 93 93 66 66 66 66 331 331 454 177 177 177 177 184 184
 31 206 301 301 301 301 301 63 334 334 334 201 201 201 265 265 93 66 66 66
 66 331 331 454 331 331 177 177 337 114 31 206 301 301 301 301 301 63 334 334
 334 201 201 201 265 265 14 321 66 66 331 331 331 331 331 331 331 337 337 114
 114 301 301 301 301 301 244 63 334 334 334 201 201 265 265 265 265 321 66 519
 331 331 331 331 331 331 331 337 337 114 114 301 301 301 301 301 244 63 334 334
 179 179 90 90 90 265 322 322 519 519 519 331 331 331 331 331 331 337 337 337
 139 159 159 159 401 401 401 401 74 179 74 74 90 90 90 315 322 322 519 519
 519 331 331 331 331 331 331 434 434 434 139 343 343 343 401 401 401 401 74 74
 74 74 464 464 464 464 464 322 519 519 519 331 331 331 331 331 434 434 434 434
 343 343 343 343 343 401 401 74 74 74 74 464 464 464 464 464 464 490 436 436
 436 436 331 331 331 434 434 434 434 155 343 343 343 343 343 343 369 369 74 74
 464 464 464 464 464 464 464 490 436 436 436 436 229 229 254 254 434 434 434 155
 343 343 343 343 343 343 369 369 369 74 464 464 464 464 464 64 64 64 64 436
 436 436 370 245 245 245 245 155 155 155 343 343 343 343 343 343 369 369 369 369
 464 464 464 464 464 64 64 64 64 462 462 412 412 245 245 245 245 245 155 155
 343 343 343 343 343 343 369 369 369 369 373 373 373 464 64 64 64 64 462 462
 462 412 412 412 245 245 245 245 249 249 249 343 343 343 343 343 369 369 369 36
 36 373 373 64 64 64 64 64 462 462 462 412 412 412 412 245 245 249 249 249
 249 249 343 471 343 343 369 36 36 36 36 373 373 64 364 364 364 64 462 95
 462 412 412 412 412 412 249 249 249 249 249 249 471 471 471 471 36 36 36 36
 36 320 320 320 364 364 364 95 95 95 95 412 412 412 412 165 483 249 249 249
 249 394 394 471 471 408 408 408 408 36 320 320 320 320 364 364 364 95 95 95
 95 95 195 195 195 165 483 483 483 249 394 394 394 394 394 408 408 408 408 408
 320 320 320 320 320 441 441 441 441 95 95 95 195 195 195 165 483 483 483 394
 394 394 394 394 394 408 408 408 408 408 378 378 378 378 378 441 441 441 441 441
 95 95 195 195 195 165 483 483 405 405 394 394 394 394 394 475 475 475 408 353
 378 378 378 378 378 441 441 441 441 441 51 51 195 195 195 165 405 405 405 405
 405 405 409 409 409 475 475 475 475 378 378 378 378 378 378 441 441 441 51 51
 51 51 51 513 182 182 405 405 405 405 405 405 409 409 409 475 475 475 475 378
 378 378 378 378 378 474 51 51 51 51 51 51 51 513 182 182 182 405 405 405
 405 405 409 409 409 475 475 475 372 378 378 378 378 378 378 474 474 51 51 51
 51 51 513 513 182 182 182 182 405 405 405 405 409 409 409 475 475 372 372 372
 39 406 406 406 474 474 474 474 51 51 51 51 513 513 513 182 182 296 296 405
 405 147 147 147 147 147 39 39 39 39 39 406 406 406 474 474 474 474 216 216
 216 216 127 513 513 182 296 296 296 296 388 388 147 147 147 147 39 39 39 39
 39 406 406 406 474 474 474 474 216 216 216 127 127 127 127 127 296 296 296 296
 388 388 309 309 309 309 171 39 39 39 458 406 406 406 219 219 283 283 216 216
 216 127 127 127 127 127 184 184 184 184 388 388 309 309 309 309 171 458 458 458
 33 33 33 33 219 219 219 283 311 311 311 311 127 127 127 184 184 184 184 184
 388 388 309 309 309 309 171 458 458 458 33 33 33 33 134 93 93 93 311 311
 311 311 127 127 177 177 184 184 184 184 184 388 309 309 309 309 458 458 458 458
 33 33 33 33 134 93 93 93 93 311 311 311 127 177 177 177 177 184 184 184
 206 206 206 301 301 349 458 458 458 33 33 33 33 33 134 93 93 93 93 66
 442 442 442 177 177 177 177 177 184 184 206 206 206 301 301 301 293 458 33 33
 201 201 201 201 201 93 93 93 66 66 66 66 331 177 177 177 177 177 114 114
 114 206 301 301 301 301 301 334 334 334 201 201 201 201 201 93 93 66 66 66
 66 66 331 331 331 177 177 177 114 114 114 206 301 301 301 301 301 334 334 334
 201 201 201 201 201 14 14 14 66 66 66 331 331 331 331 331 331 337 114 114
 114 114 159 159 159 159 159 334 334 334 179 201 201 201 265 14 14 14 14 519
 519 331 331 331 331 331 331 337 114 114 114 159 159 159 159 159 159 179 179 179
 179 179 201 90 90 322 322 322 322 519 519 331 331 331 331 331 331 331 168 168
 139 159 159 159 159 159 401 179 179 179 179 179 464 90 464 322 322 322 519 519
 519 519 331 331 331 331 331 434 434 168 139 139 159 159 159 159 401 179 179 179
 74 464 464 464 464 464 322 322 519 519 519 519 331 229 331 125 434 434 434 434
 139 343 343 343 343 343 369 369 74 74 464 464 464 464 464 464 464 436 436 470
 436 436 229 229 229 125 434 434 434 434 343 343 343 343 343 343 369 369 369 74
 464 464 464 464 464 464 464 436 436 436 436 436 229 229 229 125 434 434 434 155
 343 343 343 343 343 343 369 369 369 369 464 464 464 464 464 464 64 64 436 436
 436 436 124 124 124 245 434 434 155 155 343 343 343 343 343 343 369 369 369 369
 464 464 464 464 464 64 64 64 462 462 462 462 412 245 245 245 245 245 249 155
 343 343 343 343 343 343 369 369 369 369 464 464 464 464 64 64 64 64 462 462
 462 412 412 412 245 245 245 249 249 249 249 249 343 343 343 343 369 369 369 369
 36 373 464 464 64 64 64 64 462 462 462 412 412 412 412 245 245 249 249 249
 249 249 471 471 471 471 369 369 36 36 36 373 373 464 364 364 364 64 462 462
 462 412 412 412 412 412 249 249 249 249 249 249 471 471 471 471 408 408 36 36
 36 320 320 418 418 418 418 418 95 95 95 412 195 195 195 165 165 249 249 249
 394 394 394 471 471 408 408 408 408 408 320 320 320 418 418 418 105 441 95 95
 95 95 195 166 195 165 165 249 249 394 394 394 394 394 394 408 408 408 408 408
 32 320 320 418 418 105 441 441 441 521 521 521 195 195 195 165 165 483 483 394
 394 394 394 394 394 408 408 408 408 32 32 378 378 378 441 441 441 441 441 521
 521 521 195 195 195 165 165 405 405 405 394 394 394 394 394 475 475 408 32 32
 378 378 378 378 378 441 441 441 441 521 521 521 195 416 195 165 405 405 405 405
 405 405 409 409 409 475 475 475 32 32 378 378 378 378 378 441 441 441 51 51
 51 51 51 416 182 182 405 405 405 405 405 405 409 409 409 409 475 475 475 32
 378 378 378 378 378 474 51 51 51 51 51 51 51 182 182 182 182 405 405 405
 405 405 409 409 409 409 475 372 372 372 372 378 378 273 273 474 474 51 51 51
 51 51 513 182 182 182 182 182 405 405 405 405 409 409 409 409 372 372 372 372
 39 406 406 273 76 474 474 474 51 51 51 51 513 513 182 182 182 296 296 296
 388 388 147 147 147 147 372 372 372 39 39 406 406 406 76 474 474 474 216 216
 216 216 127 513 513 182 296 296 296 296 388 388 147 147 147 171 171 39 39 39
 39 406 406 406 76 76 474 474 216 216 216 216 127 127 127 127 296 296 296 296
 388 388 388 147 147 171 171 39 39 39 458 406 406 406 219 219 219 219 219 216
 216 216 127 127 127 127 184 296 296 296 388 388 388 388 171 171 171 458 458 458
 458 33 33 33 219 219 219 219 219 311 311 311 127 127 127 184 184 184 184 388
 388 388 388 388 171 171 171 458 458 458 458 33 33 33 134 219 219 219 219 311
 311 311 127 177 177 177 177 184 184 184 388 388 388 388 171 171 171 458 458 458
 33 33 33 33 134 134 93 93 93 442 442 442 442 177 177 177 177 177 184 184
 388 206 388 301 293 293 293 458 458 458 33 33 33 33 134 134 93 93 93 442
 442 442 442 177 177 177 177 177 177 184 206 206 206 301 301 293 293 458 458 458
 201 201 201 201 134 134 93 93 66 66 66 442 177 177 177 177 177 177 114 114
 114 206 10 301 301 293 293 92 92 92 201 201 201 201 201 134 93 66 66 66
 66 66 331 331 177 177 177 177 114 114 114 10 10 10 10 10 293 179 179 201
 201 201 201 201 201 14 14 14 66 66 66 331 331 226 331 331 331 177 114 114
 114 114 159 159 159 159 179 179 179 179 179 67 67 67 67 14 14 14 14 519
 519 331 226 226 226 331 168 168 168 168 114 159 159 159 159 159 179 179 179 179
 179 179 67 67 14 14 14 322 322 519 519 12 331 226 331 331 168 168 168 168
 139 139 159 159 159 159 159 179 179 179 179 179 179 464 464 322 322 322 322 519
 519 12 12 331 331 168 168 168 168 168 139 139 307 307 307 307 307 179 179 179
 179 179 464 464 464 464 322 322 322 519 519 12 229 229 229 125 125 168 168 168
 139 139 307 307 307 307 369 369 179 179 464 464 464 464 464 464 322 436 436 470
 436 436 229 229 229 125 125 434 434 434 343 343 343 343 343 369 369 369 369 369
 464 464 464 464 464 464 464 436 436 436 436 436 229 229 124 125 125 434 434 343
 343 343 343 343 343 369 369 369 369 369 464 464 464 464 464 464 64 64 436 436
 436 436 124 124 124 124 125 434 313 343 343 343 343 343 343 369 369 369 369 369
 228 464 464 464 464 203 64 64 462 462 462 462 124 124 124 448 448 448 249 249
 343 343 343 343 343 369 369 369 369 369 228 228 464 464 203 203 64 462 462 462
 462 462 412 412 448 448 448 249 249 249 249 249 343 343 343 369 369 369 369 369
 228 228 228 464 203 203 64 462 462 462 462 412 412 412 448 448 448 249 249 249
 249 249 471 471 471 471 369 369 369 118 36 228 418 418 418 418 418 462 462 462
 462 412 412 412 412 412 249 249 249 249 249 249 471 471 471 471 408 408 118 118
 118 382 418 418 418 418 418 418 521 95 291 291 291 195 195 165 341 341 249 249
 394 394 394 471 471 144 408 408 408 118 382 382 382 418 418 418 105 105 521 521
 291 291 291 195 195 165 341 341 341 394 394 394 394 394 394 144 408 408 408 32
 32 382 382 418 418 105 105 105 521 521 521 291 195 195 195 165 341 341 341 394
 394 394 394 394 394 144 408 408 32 32 32 32 382 418 105 105 105 441 521 521
 521 521 195 195 195 165 341 341 405 405 181 181 181 181 181 475 475 32 32 32
 32 389 389 378 105 105 105 441 521 521 521 521 416 416 416 178 178 405 405 405
 405 181 181 409 409 475 475 32 32 32 389 389 389 273 273 105 105 105 51 51
 51 51 416 416 416 178 178 405 405 405 405 405 409 409 409 409 475 475 32 32
 372 476 273 273 273 273 105 51 51 51 51 51 368 368 182 182 178 178 405 405
 405 405 409 409 409 409 372 372 372 372 372 476 273 273 273 76 76 51 51 51
 51 51 368 368 182 182 182 182 405 405 405 388 409 409 409 372 372 372 372 372
 237 237 237 273 76 76 76 474 51 51 51 51 368 368 182 182 182 296 296 296