# vtk DataFile Version 2.0
Data set from ImportExport Version 6.5.141.ec284b7a5
ASCII

DATASET RECTILINEAR_GRID
DIMENSIONS 26 26 26
X_COORDINATES 26 float
-3.000000 3.000000 9.000000 15.000000 21.000000 27.000000 33.000000 39.000000 45.000000 51.000000 57.000000 63.000000 69.000000 75.000000 81.000000 87.000000 93.000000 99.000000 105.000000 111.000000 117.000000 
123.000000 129.000000 135.000000 141.000000 147.000000 
Y_COORDINATES 26 float
-3.000000 3.000000 9.000000 15.000000 21.000000 27.000000 33.000000 39.000000 45.000000 51.000000 57.000000 63.000000 69.000000 75.000000 81.000000 87.000000 93.000000 99.000000 105.000000 111.000000 117.000000 
123.000000 129.000000 135.000000 141.000000 147.000000 
Z_COORDINATES 26 float
-3.000000 3.000000 9.000000 15.000000 21.000000 27.000000 33.000000 39.000000 45.000000 51.000000 57.000000 63.000000 69.000000 75.000000 81.000000 87.000000 93.000000 99.000000 105.000000 111.000000 117.000000 
123.000000 129.000000 135.000000 141.000000 147.000000 
CELL_DATA 15625
SCALARS FeatureIds int 1
LOOKUP_TABLE default
 12 12 67 28 28 34 34 34 34 34 48 48 48 48 48 69 69 69 69 41
 41 41 41 41 41 12 12 28 28 28 28 34 34 34 48 48 48 48 48 48
 48 69 69 69 41 41 41 41 41 41 61 28 28 28 28 28 28 34 34 48
 48 48 48 48 48 48 48 69 41 41 41 41 41 41 41 61 61 28 28 28
 28 28 28 34 48 48 48 48 48 48 48 48 48 41 41 41 41 41 41 61
 61 61 61 61 61 28 28 28 58 58 48 48 65 48 48 48 48 48 63 63
 41 41 41 61 61 61 61 61 61 61 61 61 61 76 76 76 48 65 48 48
 48 48 63 63 63 63 61 61 61 61 61 61 61 61 61 61 61 61 76 76
 76 76 76 76 76 76 76 63 63 63 63 61 61 61 61 61 61 61 61 61
 61 61 61 76 76 76 76 76 76 76 76 76 76 44 63 61 61 61 61 61
 61 61 61 61 61 61 61 76 76 76 76 76 76 76 76 76 76 76 44 44
 61 61 61 61 61 61 61 61 61 61 61 61 76 76 76 76 76 76 76 76
 76 76 44 44 44 44 61 61 61 61 61 61 61 61 53 53 53 76 76 76
 76 76 76 76 76 76 44 44 44 44 44 44 61 61 61 61 61 61 53 53
 53 53 76 76 76 76 76 76 76 76 76 44 44 44 44 44 44 61 61 61
 27 27 27 53 53 53 53 76 76 76 76 76 76 76 76 76 76 44 44 44
 44 27 27 27 27 27 27 27 27 27 53 53 76 76 76 76 76 76 76 76
 76 76 83 44 44 44 27 27 27 27 27 27 27 27 27 27 27 71 76 76
 76 76 76 76 76 76 83 83 83 83 11 11 27 27 27 27 27 27 27 27
 27 27 71 71 76 76 76 76 76 76 83 83 83 11 11 11 11 11 27 27
 27 27 27 27 27 27 27 34 34 34 34 76 76 76 76 83 11 11 11 11
 11 11 11 11 27 27 27 27 27 77 77 77 34 34 34 34 34 34 76 11
 11 11 11 11 11 11 11 11 11 11 11 12 12 12 77 77 77 34 34 34
 34 34 34 24 11 11 11 11 11 11 11 11 11 11 11 12 12 12 12 77
 77 34 34 34 34 34 34 34 24 46 46 11 11 11 11 11 11 11 11 11
 12 12 12 12 34 34 34 34 34 34 34 34 34 69 69 69 69 11 11 11
 11 11 11 11 12 12 12 12 12 34 34 34 34 34 34 34 34 69 69 69
 69 69 69 11 11 11 11 11 11 12 12 12 12 12 34 34 34 34 34 34
 34 34 69 69 69 69 69 69 69 11 11 11 11 12 12 12 12 12 12 34
 34 34 34 34 34 34 48 48 69 69 69 69 69 69 11 11 11 11 12 12
 12 12 12 12 34 34 34 34 34 34 48 48 48 48 69 69 69 69 69 69
 41 41 41 12 12 12 12 28 28 28 34 34 34 34 34 48 48 48 48 48
 69 69 69 69 41 41 41 41 41 41 28 28 28 28 28 28 34 34 34 48
 48 48 48 48 48 48 69 69 69 41 41 41 41 41 41 61 28 28 28 28
 28 28 34 34 48 48 48 48 48 48 48 48 69 69 41 41 41 41 41 41
 61 61 28 28 28 28 28 28 58 48 48 48 48 48 48 48 48 48 63 63
 41 41 41 61 61 61 61 61 61 28 28 28 28 58 58 58 48 48 48 48
 48 48 48 63 63 63 41 41 61 61 61 61 61 61 61 61 61 61 58 58
 58 58 58 48 48 48 48 63 63 63 63 61 61 61 61 61 61 61 61 61
 61 61 58 58 58 58 58 58 76 76 76 76 63 63 63 63 61 61 61 61
 61 61 61 61 61 61 61 58 58 76 76 76 76 76 76 76 76 76 63 63
 63 61 61 61 61 61 61 61 61 61 61 61 76 76 76 76 76 76 76 76
 76 76 76 44 63 36 61 61 61 61 61 61 61 61 61 61 61 76 76 76
 76 76 76 76 76 76 76 44 44 44 36 61 61 61 61 61 61 61 61 61
 53 53 76 76 76 76 76 76 76 76 76 76 44 44 44 36 36 61 61 61
 61 61 61 61 53 53 53 76 76 76 76 76 76 76 76 76 76 44 44 44
 44 36 61 61 61 27 27 27 53 53 53 53 76 76 76 76 76 76 76 76
 76 83 83 83 83 83 27 27 27 27 27 27 27 27 27 53 71 71 76 76
 76 76 76 76 76 83 83 83 83 83 83 27 27 27 27 27 27 27 27 27
 27 71 71 71 76 76 76 76 76 76 83 83 83 83 83 83 11 27 27 27
 27 27 27 27 27 27 71 71 71 71 76 76 76 76 83 83 83 83 83 11
 11 11 11 27 27 27 27 27 27 27 27 27 71 34 34 34 76 76 76 83
 83 83 83 11 11 11 11 11 11 27 27 27 27 27 27 27 34 34 34 34
 34 34 24 76 83 83 11 11 11 11 11 11 11 11 11 11 27 27 27 34
 34 34 34 34 34 34 34 24 24 24 11 11 11 11 11 11 11 11 11 11
 12 12 12 12 34 34 34 34 34 34 34 34 24 24 24 46 11 11 11 11
 11 11 11 11 11 12 12 12 12 34 34 34 34 34 34 34 34 31 31 69
 69 69 11 11 11 11 11 11 11 11 12 12 12 12 34 34 34 34 34 34
 34 34 31 69 69 69 69 69 11 11 11 11 11 11 12 12 12 12 12 34
 34 34 34 34 34 34 34 69 69 69 69 69 69 69 11 11 11 11 11 12
 12 12 12 12 34 34 34 34 34 34 34 48 48 69 69 69 69 69 69 11
 11 11 11 12 12 12 12 12 12 34 34 34 34 34 34 48 48 48 48 69
 69 69 69 69 69 41 41 41 12 12 28 28 28 28 28 34 34 34 34 34
 48 48 48 48 48 69 69 69 69 41 41 41 29 29 29 28 28 28 28 28
 28 34 34 34 48 48 48 48 48 48 48 69 69 69 41 41 41 41 29 29
 61 28 28 28 28 28 28 34 34 48 48 48 48 48 48 48 48 48 49 49
 49 41 41 41 61 61 61 28 28 28 28 28 58 58 58 48 48 48 48 48
 48 48 48 49 49 49 49 41 61 61 61 61 61 61 61 61 61 58 58 58
 58 58 58 48 48 48 48 49 49 49 49 49 61 61 61 61 61 61 61 61
 61 61 58 58 58 58 58 58 58 48 48 48 49 49 49 49 49 61 61 61
 61 61 61 61 61 61 61 58 58 58 58 58 58 58 58 58 58 49 49 49
 49 49 61 61 61 61 61 61 61 61 61 61 58 58 58 58 58 58 58 58
 58 76 49 49 49 49 36 61 61 61 61 61 61 61 61 61 61 58 58 58
 58 58 58 76 76 76 76 76 49 49 36 36 36 61 61 61 61 61 61 61
 61 61 76 76 76 76 76 76 76 76 76 76 76 44 36 36 36 36 61 61
 61 61 61 61 61 61 61 76 76 76 76 76 76 76 76 76 76 44 44 36
 36 36 36 61 61 61 61 61 61 61 61 71 76 76 76 76 76 76 76 76
 76 83 83 83 83 36 36 36 61 61 88 88 88 88 88 71 71 71 71 76
 76 76 76 76 76 83 83 83 83 83 83 6 6 27 27 27 27 27 27 27
 71 71 71 71 76 76 76 76 76 83 83 83 83 83 83 83 6 27 27 27
 27 27 27 27 27 71 71 71 71 71 76 76 76 83 83 83 83 83 83 83
 83 27 27 27 27 27 27 27 27 27 71 71 71 71 71 71 76 83 83 83
 83 83 83 83 83 11 11 11 27 27 27 27 27 27 27 71 71 71 71 71
 71 24 24 83 83 83 83 83 11 11 11 11 11 11 27 27 27 27 27 27
 71 71 71 71 71 34 24 24 24 24 83 83 11 11 11 11 11 11 11 11
 11 27 27 27 34 34 34 34 34 34 34 24 24 24 24 24 11 11 11 11
 11 11 11 11 11 11 12 12 34 34 34 34 34 34 34 34 24 24 24 24
 24 11 11 11 11 11 11 11 11 11 12 12 12 34 34 34 34 34 34 34
 34 34 31 31 31 69 69 11 11 11 11 11 11 11 11 12 12 12 34 34
 34 34 34 34 34 34 31 31 31 31 69 69 69 11 11 11 11 11 11 11
 12 12 12 34 34 34 34 34 34 34 34 31 31 31 69 69 69 69 69 11
 11 11 11 11 12 12 12 12 34 34 34 34 34 34 34 34 48 48 69 69
 69 69 69 69 11 11 11 11 29 12 12 12 12 34 34 34 34 34 34 34
 48 48 48 48 69 69 69 69 69 69 29 29 29 29 29 29 28 28 28 28
 34 34 34 34 34 48 48 48 48 48 69 69 69 69 29 29 29 29 29 29
 28 28 28 28 28 28 34 34 34 48 48 48 48 48 48 48 48 48 48 49
 49 29 29 29 29 61 28 28 28 28 28 28 34 58 48 48 48 48 48 48
 48 48 48 49 49 49 29 29 29 29 61 61 28 28 28 28 80 58 58 58
 58 58 48 48 48 48 48 49 49 49 49 49 49 61 61 61 61 61 61 61
 61 58 58 58 58 58 58 58 58 48 48 48 49 49 49 49 49 49 61 61
 61 61 61 61 61 61 58 58 58 58 58 58 58 58 58 58 49 49 49 49
 49 49 49 61 61 61 61 61 61 61 61 58 58 58 58 58 58 58 58 58
 58 58 49 49 49 49 49 61 61 61 61 61 61 61 61 61 61 58 58 58
 58 58 58 58 58 58 58 49 49 49 49 36 61 61 61 61 61 61 61 61
 61 61 58 58 58 58 58 58 58 58 58 58 49 49 36 36 36 36 61 61
 61 61 61 61 61 61 61 58 58 58 58 58 58 58 76 76 76 76 36 36
 36 36 36 61 61 61 61 61 61 61 61 71 58 58 58 58 58 58 76 76
 76 76 83 83 36 36 36 36 61 61 88 88 88 88 61 82 71 71 71 76
 76 76 76 76 76 83 83 83 83 83 36 36 36 88 88 88 88 88 88 88
 71 71 71 71 71 76 76 76 76 83 83 83 83 83 83 6 6 6 6 88
 88 88 88 88 71 71 71 71 71 71 71 76 76 83 83 83 83 83 83 83
 6 6 6 6 88 27 27 27 27 27 71 71 71 71 71 71 76 83 83 83
 83 83 83 83 83 39 39 39 27 27 27 27 27 27 27 71 71 71 71 71
 71 71 83 83 83 83 83 83 83 83 39 39 39 27 27 27 27 27 27 27
 71 71 71 71 71 71 24 24 83 83 83 83 83 83 11 39 39 39 27 27
 27 27 27 27 27 71 71 71 71 71 71 24 24 24 24 24 83 83 11 11
 11 11 11 11 27 27 27 27 27 27 71 34 34 34 34 24 24 24 24 24
 24 24 11 11 11 11 11 11 11 11 11 12 27 27 34 34 34 34 34 34
 24 24 24 24 24 24 24 11 11 11 11 11 11 11 11 12 12 12 34 34
 34 34 34 34 34 34 24 31 31 31 24 24 11 11 11 11 11 11 11 11
 12 12 12 34 34 34 34 34 34 34 34 31 31 31 31 69 69 69 11 11
 11 11 11 11 29 12 12 12 34 34 34 34 34 34 34 34 31 31 31 31
 69 69 69 69 11 11 29 29 29 29 29 12 12 34 34 34 34 34 34 34
 34 31 31 69 69 69 69 69 69 11 29 29 29 29 29 29 29 12 34 34
 34 34 34 34 34 34 48 48 48 69 69 69 69 69 69 29 29 29 29 29
 29 29 28 28 80 80 80 34 34 48 48 48 48 48 48 48 69 69 69 29
 29 29 29 29 29 29 29 28 28 80 80 80 80 34 48 48 48 48 48 48
 48 48 48 48 49 29 29 29 29 29 61 80 80 28 80 80 80 80 58 58
 58 48 48 48 48 48 48 48 49 49 87 87 29 29 29 61 61 80 80 80
 80 80 58 58 58 58 58 58 48 48 48 48 49 49 49 49 49 49 61 61
 61 61 61 61 80 80 80 58 58 58 58 58 58 58 58 58 49 49 49 49
 49 49 49 61 61 61 61 61 61 61 80 58 58 58 58 58 58 58 58 58
 58 49 49 49 49 49 49 49 61 61 61 61 61 61 61 61 58 58 58 58
 58 58 58 58 58 58 58 49 49 49 49 49 49 61 61 61 61 61 61 61
 61 58 58 58 58 58 58 58 58 58 58 58 47 49 10 10 10 61 61 61
 61 61 61 61 61 61 58 58 58 58 58 58 58 58 58 58 58 47 10 10
 10 10 36 61 61 61 61 61 61 61 82 82 58 58 58 58 58 58 58 58
 58 58 47 10 10 10 36 36 61 61 88 88 88 61 82 82 82 82 58 58
 58 58 58 58 58 76 83 83 83 10 36 36 36 36 61 88 88 88 88 82
 82 82 71 71 58 58 58 58 58 83 83 83 83 83 6 6 6 6 6 88
 88 88 88 88 71 71 71 71 71 71 71 76 76 83 83 83 83 83 83 6
 6 6 6 6 88 88 88 88 88 71 71 71 71 71 71 71 76 76 83 83
 83 83 83 83 6 6 6 6 6 88 88 88 88 88 71 71 71 71 71 71
 71 71 83 83 83 83 83 83 83 39 39 39 39 39 88 88 88 88 27 71
 71 71 71 71 71 71 71 83 83 83 83 83 83 83 39 39 39 39 39 27
 27 27 27 27 71 71 71 71 71 71 71 24 24 24 83 83 83 83 83 39
 39 39 39 39 27 27 27 27 27 71 71 71 71 71 71 71 24 24 24 24
 24 83 83 55 55 39 39 39 39 27 27 27 27 27 71 71 71 71 5 5
 5 24 24 24 24 24 24 55 55 55 55 55 11 11 11 11 12 27 27 34
 34 34 34 5 5 5 24 24 24 24 24 24 55 55 55 55 55 55 55 11
 12 12 12 34 34 34 34 34 34 5 5 24 24 24 24 24 24 11 11 55
 55 55 55 55 29 29 29 12 34 34 34 34 34 34 34 5 24 31 31 31
 24 24 69 55 55 55 55 29 29 29 29 29 12 34 34 34 34 34 34 34
 34 31 31 31 31 31 69 69 69 55 55 29 29 29 29 29 29 29 34 34
 34 34 34 34 34 34 31 31 31 69 69 69 69 69 55 29 29 29 29 29
 29 29 29 34 34 34 34 34 34 34 34 48 48 48 69 69 69 69 69 29
 29 29 29 29 29 29 29 29 80 80 80 80 80 80 48 48 48 48 35 48
 48 69 18 87 87 29 29 29 29 29 29 29 80 80 80 80 80 80 80 58
 48 48 35 35 35 48 48 18 87 87 87 29 29 29 29 80 80 80 80 80
 80 80 80 58 58 58 58 48 35 48 48 48 87 87 87 87 87 29 29 29
 80 80 80 80 80 80 80 80 58 58 58 58 58 58 48 48 48 87 87 49
 87 87 87 40 61 61 80 80 80 80 80 80 58 58 58 58 58 58 58 58
 58 47 47 49 49 49 49 40 40 61 61 61 80 80 80 80 80 58 58 58
 58 58 58 58 58 58 47 47 47 49 49 40 40 40 61 61 61 61 80 80
 80 58 58 58 58 58 58 58 58 58 58 47 47 47 47 40 40 40 40 61
 61 61 61 61 61 82 58 58 58 58 58 58 58 58 58 58 47 47 47 10
 10 10 40 40 61 61 61 61 61 82 82 82 58 58 58 58 58 58 58 58
 58 47 47 47 10 10 10 36 40 61 61 61 61 82 82 82 82 82 58 58
 58 58 58 58 58 58 47 47 47 10 10 10 36 61 61 88 88 88 82 82
 82 82 82 58 58 58 58 58 58 58 58 83 83 47 10 10 10 36 36 88
 88 88 88 88 82 82 82 82 71 58 58 58 58 58 58 83 83 83 83 6
 6 6 6 6 88 88 88 88 88 82 82 71 71 71 71 71 58 58 83 83
 83 83 83 83 6 6 6 6 6 88 88 88 88 88 82 71 71 71 71 71
 71 71 71 83 83 83 83 83 83 6 6 6 6 6 88 88 88 88 88 71
 71 71 71 71 71 71 71 71 83 83 83 83 83 83 39 39 39 39 39 88
 88 88 88 16 71 71 71 71 71 71 71 71 71 83 83 83 83 83 83 39
 39 39 39 39 88 88 88 16 16 71 71 71 71 71 71 71 24 24 24 24
 83 83 83 55 39 39 39 39 39 27 27 27 16 16 71 71 71 71 71 71
 5 24 24 24 24 24 24 55 55 55 39 39 39 39 39 38 38 38 27 71
 71 71 5 5 5 5 24 24 24 24 24 24 55 55 55 55 55 55 55 55
 38 38 38 71 71 5 5 5 5 5 5 24 24 24 24 24 24 55 55 55
 55 55 55 55 55 38 38 38 34 34 34 5 5 5 5 5 24 24 24 24
 24 24 55 55 55 55 55 55 55 55 29 29 38 34 34 34 34 5 5 5
 5 24 24 24 24 24 24 55 55 55 55 55 29 29 29 29 29 29 34 34
 34 34 34 5 5 5 24 24 24 24 24 24 55 55 55 55 29 29 29 29
 29 29 29 34 34 34 34 34 34 5 5 24 31 31 69 69 69 55 55 55
 29 29 29 29 29 29 29 29 80 80 80 34 34 34 5 5 48 48 48 69
 69 69 69 55 55 29 29 29 29 29 29 80 80 80 80 80 80 80 80 80
 35 35 35 35 35 18 18 18 87 87 87 29 29 29 29 29 80 80 80 80
 80 80 80 80 80 35 35 35 35 35 18 18 18 87 87 87 87 29 29 29
 80 80 80 80 80 80 80 80 80 58 58 35 35 35 35 18 18 87 87 87
 87 87 87 29 29 80 80 80 80 80 80 80 80 58 58 58 58 58 58 35
 18 18 87 87 87 87 87 87 40 40 80 80 80 80 80 80 80 80 58 58
 58 58 58 58 58 58 47 47 87 87 87 40 40 40 40 61 80 80 80 80
 80 80 58 58 58 58 58 58 58 58 47 47 47 47 47 40 40 40 40 40
 61 61 80 80 80 80 80 58 58 58 58 58 58 58 58 47 47 47 47 47
 40 40 40 40 40 61 61 61 80 80 80 82 58 58 58 58 58 58 58 58
 58 47 47 47 47 40 40 40 40 40 61 61 82 82 82 82 82 82 58 58
 58 58 58 58 58 58 47 47 47 47 10 10 40 40 40 88 82 82 82 82
 82 82 82 58 58 58 58 58 58 58 58 47 47 47 10 10 40 40 40 40
 88 88 82 82 82 82 82 82 82 58 58 58 58 58 58 58 47 47 47 40
 40 40 40 40 88 88 88 88 82 82 82 82 82 82 82 58 58 58 58 58
 83 83 83 83 6 6 6 6 6 88 88 88 88 82 82 82 82 82 71 71
 71 58 58 58 83 83 83 83 83 6 6 6 6 6 88 88 88 88 88 82
 82 71 71 71 71 71 71 71 83 83 83 83 83 83 6 6 6 6 6 88
 88 88 88 16 16 71 71 71 71 71 71 71 71 83 83 83 83 83 83 83
 39 39 39 39 88 88 88 16 16 16 71 71 71 71 71 71 71 71 24 83
 83 83 83 83 39 39 39 39 39 88 88 16 16 16 16 71 71 71 71 71
 5 5 24 24 24 24 83 55 55 55 39 39 39 39 88 38 16 16 16 16
 71 71 71 5 5 5 5 24 24 24 24 55 55 55 55 55 39 39 39 39
 38 38 38 38 71 71 5 5 5 5 5 5 24 24 24 24 55 55 55 55
 55 55 55 55 38 38 38 38 38 5 5 5 5 5 5 5 5 24 24 24
 24 55 55 55 55 55 55 55 55 55 38 38 38 38 23 23 23 23 5 5
 5 5 24 24 24 24 24 55 55 55 55 55 55 55 55 29 38 38 38 23
 23 23 23 5 5 5 5 24 24 24 24 24 55 55 55 55 55 29 29 29
 29 29 38 38 23 23 23 23 23 5 5 5 24 24 24 24 24 55 55 55
 55 29 29 29 29 29 29 80 80 80 80 23 23 23 5 5 5 24 24 24
 24 24 55 55 55 29 29 29 29 29 29 29 80 80 80 80 80 23 23 5
 5 5 18 18 18 18 18 18 55 55 29 29 29 29 29 29 80 80 80 80
 80 80 80 80 80 35 35 35 35 35 18 18 18 87 87 87 29 29 29 29
 80 80 80 80 80 80 80 80 80 80 80 35 35 35 35 18 18 18 87 87
 87 87 87 29 29 80 80 80 80 80 80 80 80 80 80 58 35 35 35 18
 18 18 18 87 87 87 87 87 87 29 80 80 80 80 80 80 80 80 80 58
 58 58 58 58 18 18 18 18 87 87 87 87 87 40 40 80 80 80 80 80
 80 80 80 80 58 58 58 58 58 58 18 47 47 87 87 87 40 40 40 40
 40 80 80 80 80 80 80 80 58 58 58 58 58 58 58 58 47 47 47 40
 40 40 40 40 40 40 80 80 80 80 80 80 80 58 58 58 58 58 58 58
 58 47 47 47 47 40 40 40 40 40 40 80 80 80 80 80 82 82 58 58
 58 58 58 58 58 58 47 47 47 47 40 40 40 40 40 40 82 82 82 82
 82 82 82 58 58 58 58 58 58 58 58 47 47 47 47 40 40 40 40 40
 82 82 82 82 82 82 82 82 82 58 58 58 58 58 58 58 47 47 47 40
 40 40 40 40 40 88 82 82 82 82 82 82 82 82 82 58 58 58 58 58
 58 47 47 40 40 40 40 40 40 40 88 88 82 82 82 82 82 82 82 82
 58 58 58 58 4 4 4 4 4 40 40 40 40 40 88 88 88 82 82 82
 82 82 82 82 82 71 58 58 4 4 4 4 4 4 6 6 6 6 6 88
 88 88 88 16 82 82 82 71 71 71 71 71 64 4 4 4 4 4 4 6
 6 6 6 6 88 88 88 16 16 16 82 71 71 71 71 71 71 64 4 4
 4 4 4 4 4 39 39 39 39 88 88 16 16 16 16 16 71 71 71 71
 71 71 24 4 4 4 4 4 55 39 39 39 39 39 88 38 16 16 16 16
 71 71 71 71 5 5 5 24 24 24 24 55 55 55 55 39 39 39 39 38
 38 38 16 16 16 71 71 5 5 5 5 5 24 24 24 24 55 55 55 55
 55 55 55 38 38 38 38 38 38 38 5 5 5 5 5 5 5 24 24 24
 24 55 55 55 55 55 55 55 38 38 38 38 38 38 38 5 5 5 5 5
 5 5 24 24 24 24 55 55 55 55 55 55 55 55 38 38 38 38 38 38
 23 23 23 5 5 5 5 24 24 24 24 55 55 55 55 55 55 55 55 38
 38 38 38 38 38 23 23 23 23 5 5 5 24 24 24 24 55 55 55 55
 55 55 29 29 29 29 38 38 38 23 23 23 23 23 5 5 5 5 24 24
 24 55 55 55 55 55 29 29 29 29 29 38 80 80 80 23 23 23 23 5
 5 5 5 24 18 18 18 55 55 55 55 29 29 29 29 29 29 80 80 80
 80 80 80 23 5 5 5 18 18 18 18 18 18 18 55 55 29 29 29 29
 80 80 80 80 80 80 80 80 80 80 50 35 35 18 18 18 18 18 18 87
 87 87 29 29 29 80 80 80 80 80 80 80 80 80 80 50 50 35 35 18
 18 18 18 87 87 87 87 87 29 29 80 80 80 80 80 80 80 80 80 50
 50 50 35 18 18 18 18 18 87 87 87 87 87 87 87 80 80 80 80 80
 80 80 80 80 50 50 50 50 18 18 18 18 18 87 87 87 87 40 40 40
 80 80 80 80 80 80 80 80 80 58 58 58 58 58 18 18 18 18 87 87
 87 40 40 40 40 40 80 80 80 80 80 80 80 80 58 58 58 58 58 58
 18 47 47 40 40 40 40 40 40 40 40 80 80 80 80 80 80 80 58 58
 58 58 58 58 58 18 47 47 47 40 40 40 40 40 40 40 80 80 80 80
 82 82 82 58 58 58 58 58 58 58 8 47 47 47 40 40 40 40 40 40
 40 82 82 82 82 82 82 82 82 58 58 58 58 58 8 8 47 47 47 40
 40 40 40 40 40 40 82 82 82 82 82 82 82 82 82 58 58 58 58 8
 8 8 47 40 40 40 40 40 40 40 82 82 82 82 82 82 82 82 82 82
 58 58 58 58 8 8 8 4 40 40 40 40 40 40 40 82 82 82 82 82
 82 82 82 82 82 82 58 58 4 4 4 4 4 4 40 40 74 40 40 88
 88 82 82 82 82 82 82 82 82 82 64 64 64 4 4 4 4 4 4 74
 74 74 74 74 88 88 88 82 82 82 82 82 82 82 82 64 64 64 4 4
 4 4 4 4 74 74 74 74 74 88 88 88 16 16 16 82 82 82 71 71
 64 64 64 4 4 4 4 4 4 74 74 74 74 74 88 88 16 16 16 16
 16 71 71 71 71 71 64 4 4 4 4 4 4 4 4 74 74 74 39 38
 38 38 16 16 16 16 71 71 5 5 5 5 5 4 4 4 4 55 55 55
 55 39 39 38 38 38 38 38 16 16 16 5 5 5 5 5 5 5 24 24
 55 55 55 55 55 55 55 55 38 38 38 38 38 38 38 5 5 5 5 5
 5 5 5 24 24 55 55 55 55 55 55 55 55 38 38 38 38 38 38 38
 5 5 5 5 5 5 5 5 24 24 24 55 55 55 55 55 55 55 38 38
 38 38 38 38 38 5 23 5 5 5 5 5 5 24 24 24 55 55 55 55
 55 55 55 38 38 38 38 38 38 38 23 23 23 5 5 5 5 5 24 24
 24 55 55 55 55 55 55 55 29 38 38 38 38 38 38 23 23 23 23 5
 5 5 5 24 24 18 55 55 55 55 55 55 29 29 29 38 38 38 80 80
 80 80 23 23 5 5 5 5 18 18 18 18 18 55 55 55 29 29 29 29
 29 80 80 80 80 80 80 80 23 5 5 5 18 18 18 18 18 18 18 55
 55 29 29 29 29 80 80 80 80 80 80 80 80 80 80 50 18 18 18 18
 18 18 18 18 87 87 87 29 29 29 80 80 80 80 80 80 80 80 80 50
 50 50 18 18 18 18 18 18 18 87 87 87 87 40 84 80 80 80 80 80
 80 80 80 80 50 50 50 50 18 18 18 18 18 87 87 87 87 87 40 84
 80 80 80 80 80 80 80 80 80 50 50 50 50 18 18 18 18 18 87 87
 87 87 40 40 40 80 80 80 80 80 80 80 80 80 50 50 50 50 50 18
 18 18 18 40 40 40 40 40 40 40 80 80 80 80 80 80 80 80 80 58
 50 50 50 50 18 18 18 40 40 40 40 40 40 40 40 40 80 80 80 80
 80 80 80 80 58 58 58 58 58 58 8 47 40 40 40 40 40 40 40 40
 40 80 80 80 80 82 82 82 82 58 58 62 58 58 8 8 8 40 40 40
 40 40 40 40 40 40 82 82 82 82 82 82 82 82 82 58 62 58 58 8
 8 8 40 40 40 40 40 40 40 40 82 82 82 82 82 82 82 82 82 82
 58 58 58 58 8 8 8 8 40 40 40 40 40 40 40 82 82 82 82 82
 82 82 82 82 82 82 58 58 4 8 8 8 4 40 40 40 40 40 40 40
 82 82 82 82 82 82 82 82 82 82 82 82 4 4 4 4 4 4 4 40
 40 74 74 40 40 82 82 82 82 82 82 82 82 82 82 64 64 64 4 4
 4 4 4 4 74 74 74 74 74 74 82 82 82 82 82 82 82 82 82 82
 64 64 64 33 4 4 4 4 4 74 74 74 74 74 74 88 82 82 82 82
 82 82 82 82 71 64 64 64 4 4 4 4 4 4 74 74 74 74 74 74
 38 38 16 16 16 82 82 82 82 71 64 64 4 4 4 4 4 4 4 4
 74 74 74 74 38 38 38 38 16 16 16 5 5 5 5 5 5 4 4 4
 4 4 4 4 55 55 74 74 38 38 38 38 38 38 38 38 5 5 5 5
 5 5 5 4 4 4 55 55 55 55 55 55 38 38 38 38 38 38 38 38
 38 5 5 5 5 5 5 5 24 24 55 55 55 55 55 55 55 38 38 38
 38 38 38 38 38 38 5 5 5 5 5 5 5 24 24 55 55 55 55 55
 55 55 38 38 38 38 38 38 38 38 38 5 5 5 5 5 5 5 24 24
 55 55 55 55 55 55 55 55 38 38 38 38 38 38 38 38 5 5 5 5
 5 5 5 24 24 24 55 55 55 55 55 55 55 38 38 38 38 38 38 38
 38 23 23 5 5 5 5 5 24 18 18 18 55 55 55 55 55 55 38 38
 38 38 38 38 80 80 80 80 23 5 5 5 5 18 18 18 18 18 18 55
 55 29 29 38 38 38 38 80 80 80 80 80 80 80 5 5 5 18 18 18
 18 18 18 18 18 55 29 29 29 29 80 80 80 80 80 80 80 80 80 15
 50 50 18 18 18 18 18 18 18 18 87 87 56 84 84 84 80 80 80 80
 80 80 80 15 15 50 50 50 18 18 18 18 18 18 87 87 87 56 84 84
 84 84 80 80 80 80 80 80 15 50 50 50 50 18 18 18 18 18 18 56
 56 56 56 84 84 84 84 80 80 80 80 80 80 15 50 50 50 50 50 18
 18 18 18 18 56 56 56 56 40 84 84 84 80 80 80 80 80 80 15 15
 50 50 50 50 18 18 18 18 40 40 40 40 40 40 40 80 80 80 80 80
 80 80 80 15 15 50 50 50 50 18 18 18 40 40 40 40 40 40 40 40
 40 80 80 80 80 80 80 80 15 62 62 62 62 62 62 8 40 40 40 40
 40 40 40 40 40 40 80 80 80 80 82 82 82 82 62 62 62 62 62 62
 8 40 40 40 40 40 40 40 40 40 40 82 82 82 82 82 82 82 82 62
 62 62 62 62 8 8 8 40 40 40 40 40 40 40 40 40 82 82 82 82
 82 82 82 82 82 62 62 62 62 8 8 8 40 40 40 40 40 40 40 40
 82 82 82 82 82 82 82 82 82 82 82 58 58 4 8 8 4 4 40 40
 40 40 40 40 40 82 82 82 82 82 82 82 82 82 82 82 82 33 33 4
 4 4 4 4 40 40 40 40 40 40 82 82 82 82 82 82 82 82 82 82
 64 64 33 33 4 4 4 4 4 4 74 74 74 74 74 82 82 82 82 82
 82 82 82 82 82 64 64 33 33 4 4 4 4 4 4 74 74 74 74 74
 82 82 82 82 82 82 82 82 82 82 64 64 33 33 4 4 4 4 4 4
 74 74 74 74 74 38 38 38 82 82 82 82 82 82 60 64 33 33 4 4
 4 4 4 4 4 74 74 74 74 38 38 38 38 38 38 38 82 60 60 60
 60 60 33 4 4 4 4 4 4 4 78 74 38 38 38 38 38 38 38 38
 38 60 60 60 60 60 60 60 4 4 4 4 4 55 55 78 78 38 38 38
 38 38 38 38 38 38 60 60 60 60 60 5 5 4 4 4 4 55 55 55
 78 78 38 38 38 38 38 38 38 38 38 60 60 5 5 5 5 5 24 24
 55 55 55 55 55 78 78 38 38 38 38 38 38 38 38 38 5 5 5 5
 5 5 5 24 24 55 55 55 55 55 55 55 38 38 38 38 38 38 38 38
 38 5 5 5 5 5 5 5 24 24 78 78 78 78 55 55 55 38 38 38
 38 38 38 38 38 38 23 23 5 5 5 5 5 18 18 18 18 78 78 55
 55 55 38 38 38 38 38 38 38 80 80 80 80 80 5 5 5 18 18 18
 18 18 18 18 18 17 17 17 38 38 38 38 80 80 80 80 80 80 80 80
 15 18 18 18 18 18 18 18 18 18 17 17 17 38 38 84 80 80 80 80
 80 80 80 15 15 15 15 15 81 81 18 18 18 18 18 56 56 56 56 84
 84 84 80 80 80 80 80 80 15 15 15 50 50 81 81 81 18 18 18 18
 56 56 56 56 84 84 84 84 80 80 80 80 15 15 15 50 50 50 50 18
 18 18 18 18 56 56 56 56 56 84 84 84 84 80 80 80 80 15 15 15
 50 50 50 50 18 18 18 18 56 56 56 56 56 56 84 84 84 84 80 80
 80 80 15 15 15 50 50 50 50 18 18 18 56 56 56 56 56 56 56 56
 84 84 80 80 80 80 80 15 15 15 15 62 50 50 50 18 18 56 56 56
 56 56 56 56 56 40 80 80 80 80 80 80 15 15 62 62 62 62 62 62
 8 40 40 40 40 40 40 56 56 56 40 80 80 80 80 82 82 82 15 62
 62 62 62 62 62 8 40 40 40 40 40 40 40 40 40 40 82 82 82 82
 82 82 82 82 62 62 62 62 62 8 8 8 40 40 40 40 40 40 40 40
 82 82 82 82 82 82 82 82 82 82 62 62 62 62 4 4 4 40 40 40
 40 40 40 40 40 82 82 82 82 82 82 82 82 82 82 82 33 33 4 4
 4 4 4 4 40 40 40 40 40 40 82 82 82 82 82 82 82 82 82 82
 82 33 33 33 4 4 4 4 4 4 40 40 40 40 40 82 82 82 82 82
 82 82 82 82 82 64 33 33 33 33 4 4 4 4 4 74 74 74 74 74
 82 82 82 82 82 82 82 82 82 82 64 33 33 33 33 4 4 4 4 4
 74 74 74 74 74 38 82 82 82 82 82 82 82 82 82 64 33 33 33 4
 4 4 4 4 4 4 74 74 74 38 38 38 38 38 82 82 82 82 68 68
 33 33 33 33 4 4 4 4 4 4 4 74 74 38 38 38 38 38 38 38
 38 60 60 60 60 60 60 60 4 4 4 4 4 4 4 78 78 38 38 38
 38 38 38 38 38 38 60 60 60 60 60 60 60 4 4 4 4 4 78 78
 78 78 38 38 38 38 38 38 38 38 38 60 60 60 60 60 60 60 60 4
 4 4 78 78 78 78 78 38 38 38 38 38 38 38 38 38 60 60 60 60
 60 60 60 60 4 4 4 78 78 78 78 78 38 38 38 38 38 38 38 38
 38 60 60 60 60 60 60 60 60 60 78 78 78 78 78 78 78 38 38 38
 38 38 38 38 38 38 60 60 60 60 60 60 60 60 78 78 78 78 78 78
 78 78 38 38 38 38 38 38 38 38 38 60 60 60 60 60 60 60 60 78
 78 78 78 78 78 78 17 38 38 38 38 38 38 38 38 80 80 80 60 60
 60 60 18 18 18 18 18 78 78 78 17 17 17 38 38 38 38 80 80 80
 80 80 80 15 15 15 15 18 18 18 18 18 18 18 18 17 17 17 38 38
 84 80 80 80 80 80 80 15 15 15 15 15 15 81 81 81 26 26 26 26
 56 56 56 56 84 84 84 80 80 80 80 80 15 15 15 15 15 15 81 81
 81 26 26 26 56 56 56 56 56 84 84 84 84 80 80 80 80 15 15 15
 15 50 50 81 81 81 26 26 56 56 56 56 56 56 84 84 84 84 80 80
 80 80 15 15 15 15 50 50 50 81 26 26 26 56 56 56 56 56 56 56
 84 84 84 80 80 80 80 15 15 15 15 50 50 50 81 26 26 56 56 56
 56 56 56 56 56 56 84 80 80 80 80 80 15 15 15 15 50 50 50 50
 26 56 56 56 56 56 56 56 56 56 56 80 80 80 80 80 80 15 15 15
 62 62 62 62 62 26 56 56 56 56 56 56 56 56 56 56 80 80 80 80
 82 82 15 15 62 62 62 62 62 62 62 56 56 56 56 56 56 56 56 56
 40 82 82 82 82 82 82 82 82 62 62 62 62 62 62 8 8 40 40 40
 40 40 56 56 56 82 82 82 82 82 82 82 82 82 82 62 62 62 62 4
 4 4 40 40 40 40 40 40 40 40 82 82 82 82 82 82 82 82 82 82
 82 51 4 4 4 4 4 4 4 40 40 40 40 40 40 82 82 82 82 82
 82 82 82 82 82 82 33 33 33 4 4 4 4 4 4 40 40 40 40 40
 82 82 82 82 82 82 82 82 82 82 82 33 33 33 4 4 4 4 4 4
 4 74 74 74 74 82 82 82 82 82 82 82 82 68 68 68 33 33 33 4
 4 4 4 4 4 74 74 74 74 38 38 79 79 79 82 82 82 68 68 68
 68 33 33 33 4 4 4 4 4 4 4 74 74 74 38 38 38 79 79 79
 82 82 68 68 68 68 33 33 4 4 4 4 4 4 4 4 78 74 38 38
 38 38 38 38 38 38 60 60 68 60 60 60 60 4 4 4 4 4 4 78
 78 78 78 38 38 38 38 38 38 38 38 60 60 60 60 60 60 60 4 4
 4 4 78 78 78 78 78 78 38 38 38 38 38 38 38 38 60 60 60 60
 60 60 60 60 4 4 78 78 78 78 78 78 78 38 38 38 38 38 38 38
 38 60 60 60 60 60 60 60 60 60 4 78 78 78 78 78 78 78 38 38
 38 38 38 38 38 38 60 60 60 60 60 60 60 60 60 78 78 78 78 78
 78 78 78 38 38 38 38 38 38 38 38 60 60 60 60 60 60 60 60 60
 78 78 78 78 78 78 78 38 38 38 38 38 38 38 38 38 60 60 60 60
 60 60 60 60 81 78 78 78 78 78 78 78 38 38 38 38 38 38 38 38
 80 80 60 60 60 60 60 60 81 81 26 26 26 78 78 17 17 17 38 38
 38 38 38 80 80 80 80 15 15 15 15 15 81 81 81 26 26 26 26 78
 17 17 17 38 38 84 80 80 80 80 80 15 15 15 15 15 15 15 81 81
 81 26 26 26 59 56 56 56 56 56 84 84 80 80 80 80 15 15 15 15
 15 15 15 81 81 81 26 26 26 59 56 56 56 56 56 84 84 80 80 80
 80 15 15 15 15 15 15 15 81 81 26 26 26 56 56 56 56 56 56 56
 84 84 84 80 80 80 15 15 15 15 15 15 50 50 26 26 26 26 56 56
 56 56 56 56 56 56 84 80 80 80 80 15 15 15 15 15 15 50 50 26
 26 26 56 56 56 56 56 56 56 56 56 84 57 57 80 80 15 15 15 15
 15 15 15 50 50 26 26 56 56 56 56 56 56 56 56 56 57 57 57 80
 80 15 15 15 15 15 15 62 62 62 26 56 56 56 56 56 56 56 56 56
 56 57 57 57 57 82 15 15 15 15 62 62 62 62 62 20 20 56 56 56
 56 56 56 56 56 56 82 82 82 82 82 82 82 15 62 62 62 62 62 62
 20 20 56 56 56 56 56 56 56 56 82 82 82 82 82 82 82 82 82 82
 62 62 62 62 4 4 4 4 40 56 56 56 56 56 56 82 82 82 82 82
 82 82 82 82 82 51 51 51 4 4 4 4 4 4 40 40 40 40 40 56
 82 82 82 82 82 82 82 82 82 82 51 51 51 4 4 4 4 4 4 4
 40 40 40 40 56 82 82 82 82 82 82 82 82 82 82 51 51 33 33 4
 4 4 4 4 4 66 66 66 66 38 38 82 82 82 82 82 82 68 68 68
 68 51 33 33 4 4 4 4 4 4 66 66 66 66 38 38 79 79 79 79
 82 68 68 68 68 68 51 33 4 4 4 4 4 4 4 66 66 66 38 38
 38 38 79 79 79 82 68 68 68 68 68 51 33 4 4 4 4 4 4 66
 66 66 66 38 38 38 38 38 79 79 79 68 68 68 68 60 60 60 4 4
 4 4 4 4 78 78 78 78 38 38 38 38 38 38 38 38 60 60 60 60
 60 60 60 4 4 4 4 78 78 78 78 78 78 38 38 38 38 38 38 38
 38 60 60 60 60 60 60 60 60 4 4 78 78 78 78 78 78 78 38 38
 38 38 38 38 38 38 60 60 60 60 60 60 60 60 60 78 78 78 78 78
 78 78 78 38 38 38 38 38 38 38 38 60 60 60 60 60 60 60 60 60
 78 78 78 78 78 78 78 78 38 38 38 38 38 38 38 38 60 60 60 60
 60 60 60 60 60 78 78 78 78 78 78 78 78 38 38 38 38 38 38 38
 38 60 60 60 60 60 60 60 60 26 26 78 78 78 78 78 78 78 38 38
 38 38 38 38 38 38 60 60 60 60 60 60 60 81 26 26 26 26 78 78
 78 17 17 38 38 38 38 38 38 80 80 80 15 15 15 15 15 15 81 81
 26 26 26 26 59 59 17 17 38 38 84 80 80 80 80 80 15 15 15 15
 15 15 15 81 81 81 26 26 59 59 59 59 59 59 56 84 84 80 80 80
 80 15 15 15 15 15 15 15 81 81 81 26 26 59 59 59 59 56 56 56
 84 84 80 80 80 15 15 15 15 15 15 15 15 81 81 81 26 26 59 59
 56 56 56 56 56 84 57 57 57 57 15 15 15 15 15 15 15 15 15 26
 26 26 26 56 56 56 56 56 56 56 56 57 57 57 57 15 15 15 15 15
 15 15 15 15 26 26 26 56 56 56 56 56 56 56 56 56 57 57 57 57
 57 15 15 15 15 15 15 15 15 26 26 56 56 56 56 56 56 56 56 56
 56 57 57 57 57 57 43 43 15 15 15 15 15 32 32 20 20 20 56 56
 56 56 56 56 56 56 57 57 57 57 57 43 43 43 15 15 15 62 62 20
 20 20 20 20 56 56 56 56 56 56 56 57 57 57 57 43 43 43 43 15
 15 62 62 51 20 20 20 20 20 56 56 56 56 56 56 56 82 82 82 82
 82 82 82 43 51 51 51 51 51 51 42 42 42 42 56 56 56 56 56 56
 82 82 82 82 82 82 82 82 82 51 51 51 51 51 51 4 42 42 42 40
 40 56 56 56 56 82 82 82 82 82 82 82 82 82 51 51 51 51 51 51
 4 4 4 4 66 66 66 56 56 56 82 82 82 82 82 82 82 82 51 51
 51 51 51 51 4 4 4 4 4 66 66 66 66 66 66 38 82 82 82 82
 82 68 68 68 68 51 51 51 51 4 4 4 4 4 66 66 66 66 66 66
 38 79 79 79 79 82 68 68 68 68 68 51 51 51 4 4 4 4 66 66
 66 66 66 66 38 38 38 79 79 79 79 68 68 68 68 68 51 51 51 4
 4 4 4 66 66 66 66 66 66 38 38 38 38 79 79 79 68 68 68 68
 68 60 51 51 4 4 4 4 66 66 66 66 66 66 38 38 38 38 38 38
 38 60 60 60 60 60 60 60 60 4 4 78 78 78 78 78 78 78 38 38
 38 38 38 38 38 38 60 60 60 60 60 60 60 60 60 78 78 78 78 78
 78 78 78 38 38 38 38 38 38 38 60 60 60 60 60 60 60 60 60 60
 78 78 78 78 78 78 78 78 38 38 38 38 38 38 38 60 60 60 60 60
 60 60 60 60 60 78 78 78 78 78 78 78 78 38 38 38 38 38 38 38
 38 60 60 60 60 60 60 60 60 60 45 45 45 78 78 78 78 78 38 38
 38 38 38 38 38 60 60 60 60 60 60 60 60 60 81 45 45 45 78 78
 78 78 86 38 38 38 38 38 38 38 60 60 60 60 60 60 60 60 81 81
 26 26 26 59 59 59 59 86 38 38 38 38 38 38 80 80 60 15 15 15
 15 15 81 81 81 81 26 26 59 59 59 59 59 38 38 72 72 72 72 72
 72 15 15 15 15 15 15 15 81 81 81 81 59 59 59 59 59 59 59 59
 72 72 72 72 72 72 15 15 15 15 15 15 15 81 81 81 81 59 59 59
 59 59 59 59 59 84 57 57 57 57 15 15 15 15 15 15 15 15 81 81
 81 81 59 59 59 59 59 56 56 56 84 57 57 57 57 15 15 15 15 15
 15 15 15 15 26 26 59 59 59 59 56 56 56 56 56 56 57 57 57 57
 57 2 15 15 15 15 15 15 15 32 26 59 59 56 56 56 56 56 56 56
 56 57 57 57 57 57 2 2 15 15 15 15 15 32 32 32 20 56 56 56
 56 56 56 56 56 56 57 57 57 57 57 43 43 43 15 15 15 32 32 32
 20 20 20 20 56 56 56 56 56 56 56 57 57 57 57 57 43 43 43 43
 15 15 32 32 32 20 20 20 20 56 56 56 56 56 56 56 57 57 57 57
 43 43 43 43 43 51 51 51 51 42 42 20 20 20 56 56 56 56 56 56
 53 57 57 82 82 82 43 9 9 9 51 51 51 51 51 42 42 42 42 42
 56 56 56 56 56 53 53 53 82 82 82 9 9 9 9 51 51 51 51 51
 42 42 42 42 42 66 22 22 22 56 53 82 82 82 82 82 9 9 9 51
 51 51 51 51 51 51 42 42 42 42 66 66 66 66 53 53 53 82 82 82
 82 82 9 51 51 51 51 51 51 51 51 4 66 66 66 66 66 66 66 66
 30 82 82 82 82 82 68 68 68 51 51 51 51 51 51 51 4 66 66 66