# vtk DataFile Version 2.0
Data set from IO Version 6.4.197.9a0dee2
ASCII

DATASET RECTILINEAR_GRID
DIMENSIONS 31 31 31
X_COORDINATES 31 float
-1.116667 1.116667 3.350000 5.583333 7.816666 10.049999 12.283332 14.516665 16.749998 18.983332 21.216665 23.449997 25.683331 27.916664 30.149996 32.383331 34.616665 36.849998 39.083332 41.316666 43.549999 
45.783329 48.016663 50.249996 52.483330 54.716663 56.949997 59.183331 61.416660 63.649998 65.883324 
Y_COORDINATES 31 float
-1.116667 1.116667 3.350000 5.583333 7.816666 10.049999 12.283332 14.516665 16.749998 18.983332 21.216665 23.449997 25.683331 27.916664 30.149996 32.383331 34.616665 36.849998 39.083332 41.316666 43.549999 
45.783329 48.016663 50.249996 52.483330 54.716663 56.949997 59.183331 61.416660 63.649998 65.883324 
Z_COORDINATES 31 float
-1.116667 1.116667 3.350000 5.583333 7.816666 10.049999 12.283332 14.516665 16.749998 18.983332 21.216665 23.449997 25.683331 27.916664 30.149996 32.383331 34.616665 36.849998 39.083332 41.316666 43.549999 
45.783329 48.016663 50.249996 52.483330 54.716663 56.949997 59.183331 61.416660 63.649998 65.883324 
CELL_DATA 27000
SCALARS FeatureIds int 1
LOOKUP_TABLE default
 464 464 464 464 293 256 141 141 18 18 18 421 421 421 421 473 473 265 265 426
 426 426 426 426 426 205 205 205 205 205 464 464 464 293 293 256 141 112 112 18
 18 421 421 421 421 473 473 265 265 268 268 268 268 268 268 205 205 205 205 464
 464 464 464 464 428 428 428 112 112 18 18 345 421 421 421 473 473 473 268 268
 268 268 268 362 362 205 205 415 415 415 415 204 204 204 428 428 428 428 154 154
 345 345 345 345 421 473 473 35 35 268 268 268 362 362 362 362 205 415 415 415
 415 204 204 204 428 428 428 428 154 154 154 345 345 345 421 35 35 35 35 35
 429 429 429 362 362 139 139 415 415 415 395 395 204 204 428 428 428 428 154 154
 154 345 345 345 35 35 35 35 35 35 429 429 429 429 139 139 139 139 139 415
 395 204 204 204 428 428 428 428 154 154 154 154 345 345 35 35 35 35 35 35
 429 429 429 429 139 139 139 139 139 395 186 186 204 204 428 428 428 428 154 154
 154 394 394 394 394 35 35 35 35 35 429 429 429 429 139 139 139 139 232 232
 186 186 186 433 433 433 428 428 106 106 106 394 394 394 394 35 35 35 35 35
 35 429 101 101 101 139 139 139 232 232 232 186 433 433 433 433 433 106 106 106
 106 394 394 394 394 394 35 35 35 253 253 253 101 101 101 212 356 232 232 232
 48 48 433 433 433 433 433 433 106 106 106 394 394 394 394 394 295 295 295 253
 253 103 101 101 101 212 356 356 232 232 48 48 48 433 433 433 433 114 106 401
 401 394 394 394 394 295 295 295 295 253 103 103 103 101 101 212 356 356 232 48
 48 48 48 433 266 114 114 114 114 401 401 490 490 490 490 295 295 295 295 478
 478 103 292 292 292 292 356 169 169 169 169 158 158 158 266 114 114 266 266 401
 401 490 490 490 490 181 295 295 478 478 478 478 292 292 292 374 374 169 169 169
 169 158 158 158 158 266 266 266 266 401 369 490 490 490 181 181 181 295 478 478
 478 478 292 292 374 374 374 374 169 169 158 158 158 158 158 266 266 266 266 115
 369 369 369 490 181 181 181 181 478 478 419 419 374 374 374 374 374 127 127 169
 322 322 158 158 158 179 179 179 179 115 115 369 369 490 181 181 181 43 431 431
 419 419 374 374 374 374 125 127 127 127 322 322 322 158 179 179 179 179 466 115
 115 115 369 43 43 43 43 1 431 431 431 431 374 374 125 125 125 127 127 127
 322 322 322 322 179 179 179 466 466 466 466 466 52 52 52 43 1 1 1 431
 431 431 217 217 125 125 125 127 127 127 227 227 322 322 179 179 179 466 466 466
 466 466 52 52 52 1 1 1 1 1 431 312 217 217 217 125 46 127 127 227
 227 227 132 132 132 179 179 466 466 466 466 466 52 52 52 1 1 1 1 1
 312 312 312 217 217 46 46 46 46 227 227 79 132 132 132 132 47 466 466 466
 466 98 98 52 52 1 1 1 1 312 312 312 312 312 217 46 46 46 46 227
 227 79 132 132 132 47 47 116 116 116 116 116 98 166 10 10 10 10 10 312
 312 312 312 312 5 5 46 46 46 67 480 480 480 132 132 47 47 116 116 116
 116 166 166 166 166 10 10 10 10 10 312 312 312 312 5 5 5 67 67 67
 480 480 480 480 480 452 452 452 116 116 427 427 166 166 166 166 10 10 10 10
 312 312 216 216 216 5 5 67 67 67 480 480 480 480 123 123 452 452 452 427
 427 427 166 166 166 166 10 10 10 10 216 216 216 216 216 216 450 450 450 450
 450 45 45 45 123 123 123 452 145 145 427 427 166 166 166 166 166 10 10 426
 426 216 216 216 216 216 450 450 450 450 450 45 45 45 123 123 123 145 145 145
 145 427 166 166 166 166 265 265 265 426 426 426 426 426 216 450 450 450 450 450
 45 45 45 45 45 141 141 145 145 145 145 145 166 166 166 265 265 265 265 426
 426 426 426 426 275 205 205 450 450 450 464 45 45 45 45 141 141 141 145 145
 145 145 421 421 421 421 265 265 265 426 426 426 426 275 275 205 205 205 205 450
 464 464 464 293 293 256 112 112 18 18 18 421 421 421 473 473 473 424 424 426
 426 426 426 426 162 162 162 205 205 464 464 464 464 293 293 256 112 112 18 18
 18 18 421 421 473 473 473 424 424 426 426 426 426 362 162 162 162 415 415 415
 464 464 464 293 293 256 112 112 18 18 18 18 421 421 473 473 473 473 126 268
 268 268 362 362 362 162 162 415 415 415 415 464 464 204 428 428 428 112 154 154
 154 345 345 345 421 473 473 35 126 126 268 429 362 362 362 162 162 415 415 415
 415 204 204 204 428 428 428 154 154 154 154 345 345 345 345 35 35 35 35 429
 429 429 429 362 362 162 139 415 415 415 415 204 204 204 428 428 428 154 154 154
 154 154 345 345 311 35 35 35 35 429 429 429 429 429 362 139 139 139 415 415
 204 204 204 204 428 428 428 428 154 154 154 154 311 311 311 35 35 35 35 35
 429 429 429 429 139 139 139 139 139 415 186 186 186 204 159 159 428 428 154 154
 154 394 394 394 394 35 35 35 35 35 429 429 429 101 139 139 139 139 139 232
 186 186 186 433 433 167 167 106 106 106 106 394 394 394 394 394 35 35 35 253
 253 253 101 101 101 356 356 356 356 232 186 186 186 433 433 167 167 106 106 106
 106 394 394 394 394 394 35 295 253 253 253 253 101 101 101 356 356 356 356 356
 48 48 48 433 433 433 433 106 106 106 106 394 394 394 394 394 295 295 295 253
 253 103 101 101 101 356 356 356 356 356 48 48 48 433 433 433 266 266 377 106
 106 394 394 394 394 295 295 295 295 253 103 103 103 101 101 356 356 356 356 48
 48 48 48 266 266 266 266 266 266 401 490 490 490 490 394 295 295 295 295 295
 103 103 292 292 292 292 356 356 169 48 169 48 158 266 266 27 266 266 266 401
 490 490 490 490 283 181 295 295 295 478 478 469 292 292 292 292 292 169 169 169
 169 158 158 158 266 266 266 266 266 266 490 490 490 490 181 181 181 295 478 419
 419 419 292 292 292 374 374 169 169 169 354 158 158 158 158 266 266 266 266 115
 115 490 490 490 181 181 181 181 419 419 419 419 374 374 374 374 374 127 127 169
 354 354 158 158 179 179 179 179 179 115 115 115 458 458 181 181 181 43 419 419
 419 419 374 374 374 374 374 127 127 127 322 354 354 179 179 179 179 179 466 115
 115 115 458 458 458 181 1 1 1 431 431 419 374 374 374 125 125 127 127 127
 227 322 322 179 179 179 179 466 466 466 466 466 52 52 52 1 1 1 1 1
 431 431 217 217 217 125 125 127 127 127 227 227 132 132 179 179 179 466 466 466
 466 466 52 52 52 1 1 1 1 1 312 312 217 217 217 125 46 46 46 227
 227 227 132 132 132 132 179 466 466 466 466 466 52 52 52 1 1 1 1 1
 312 312 312 217 217 46 46 46 46 227 227 79 132 132 132 132 132 466 466 466
 466 466 52 52 52 1 1 1 1 312 312 312 312 312 217 46 46 46 46 227
 480 79 132 132 132 132 47 116 116 116 116 116 166 166 166 10 10 10 10 312
 312 312 312 312 5 5 46 46 46 46 480 480 480 132 132 452 452 116 116 116
 116 116 166 166 166 10 10 10 10 10 312 312 312 216 5 5 5 46 46 480
 480 480 480 480 480 452 452 452 116 116 116 166 166 166 166 166 10 10 10 10
 312 216 216 216 216 5 5 67 67 480 480 480 480 480 452 452 452 452 452 145
 145 166 166 166 166 166 10 10 10 10 216 216 216 216 216 216 450 450 450 480
 450 45 45 45 123 452 452 452 145 145 145 145 166 166 166 166 10 10 10 426
 426 216 216 216 216 216 450 450 450 450 450 45 45 45 45 452 452 145 145 145
 145 145 166 166 166 166 424 424 424 426 426 426 426 216 216 450 450 450 450 450
 450 45 45 45 45 145 145 145 145 145 145 145 166 166 166 424 424 424 424 426
 426 426 426 426 275 205 450 450 450 450 464 464 464 464 464 141 145 145 145 145
 145 145 421 421 421 424 424 424 424 426 426 426 426 426 162 162 205 205 450 450
 464 464 464 464 293 256 112 112 18 18 18 18 400 400 473 473 424 424 424 424
 426 426 426 162 162 162 162 162 205 464 464 464 464 293 293 256 112 112 18 18
 18 18 400 400 473 473 473 424 424 126 126 426 426 162 162 162 162 162 415 415
 464 464 464 464 293 256 112 112 18 18 18 18 400 400 473 473 473 126 126 126
 126 126 362 362 162 162 162 415 415 415 415 464 464 464 428 428 428 112 154 154
 154 154 345 400 473 473 473 126 126 126 126 126 362 362 362 162 162 415 415 415
 415 415 204 204 428 428 428 154 154 154 154 154 345 345 311 311 35 35 213 213
 213 429 429 362 362 162 162 415 415 415 415 204 204 204 159 159 159 154 154 154
 154 154 311 311 311 311 35 35 213 213 429 429 429 429 362 139 139 415 415 415
 204 204 204 159 159 159 159 159 154 154 154 154 311 311 311 311 35 35 213 213
 429 429 429 429 429 139 139 139 356 415 186 186 186 159 159 159 159 159 154 154
 154 311 311 311 311 311 35 35 35 35 429 429 429 429 139 356 356 356 356 356
 186 186 186 159 159 159 159 159 106 106 106 394 394 394 394 394 35 35 35 253
 253 429 101 101 101 356 356 356 356 356 356 186 186 433 167 167 167 106 106 106
 106 394 394 394 394 394 295 295 253 253 253 253 101 101 101 356 356 356 356 356
 48 48 48 433 433 433 433 377 377 106 106 394 394 394 394 394 295 295 295 253
 253 103 101 101 101 356 356 356 356 356 48 48 48 433 433 266 266 377 377 377
 377 394 394 394 394 295 295 295 295 253 103 103 103 101 101 356 356 356 356 356
 48 48 48 266 266 266 266 266 377 377 490 490 490 490 394 295 295 295 295 295
 469 469 469 292 292 356 356 356 356 356 48 48 158 266 266 266 266 266 266 377
 490 490 490 490 283 181 295 295 295 469 469 469 469 292 292 292 356 356 169 169
 346 346 158 158 266 266 266 266 266 490 490 490 490 283 283 181 181 295 419 419
 419 469 469 292 292 374 199 330 330 169 354 354 354 158 266 266 266 266 266 115
 115 490 490 490 181 181 181 181 419 419 419 419 469 374 374 122 122 330 330 330
 354 354 354 158 179 179 179 179 179 115 115 115 458 458 458 181 181 181 419 419
 419 419 419 122 122 122 122 330 330 330 354 354 354 179 179 179 179 179 466 115
 115 115 458 458 458 458 1 1 1 419 419 419 122 122 122 122 122 330 330 330
 227 322 306 306 179 179 179 466 466 466 466 466 458 458 458 1 1 1 1 1
 431 217 217 217 122 122 122 330 330 330 227 227 306 306 306 179 179 466 466 466
 466 466 52 52 52 1 1 1 1 1 312 276 217 217 217 122 46 46 46 227
 227 227 132 132 306 179 179 466 466 466 466 466 52 52 52 1 1 1 1 1
 312 276 312 217 217 46 46 46 46 227 227 79 132 132 132 132 132 466 466 466
 466 466 185 185 185 1 1 1 1 312 312 312 312 312 217 46 46 46 46 46
 480 480 132 132 132 132 47 116 116 116 116 116 185 185 185 10 10 10 10 312
 312 312 312 312 5 5 46 46 46 46 480 480 480 132 132 452 452 452 116 116
 116 116 185 185 185 10 10 10 10 10 312 312 312 312 5 5 5 46 46 480
 480 480 480 480 480 452 452 452 452 116 116 166 166 166 166 166 10 10 10 10
 312 216 216 216 216 5 5 46 46 480 480 480 480 480 452 452 452 452 452 42
 145 166 166 166 166 166 10 10 10 10 216 216 216 216 216 216 223 223 223 480
 373 373 373 373 452 452 452 452 145 145 145 145 166 166 166 166 10 424 424 424
 426 216 216 216 216 223 223 223 223 450 373 373 373 373 373 452 452 145 145 145
 145 145 166 166 166 166 424 424 424 424 426 426 426 216 216 223 223 223 223 450
 373 373 373 45 45 145 145 145 145 145 145 145 166 166 166 424 424 424 424 424
 426 426 426 426 426 223 223 223 223 450 464 464 464 464 464 141 145 145 145 145
 145 145 145 421 424 424 424 424 424 424 426 426 426 426 162 162 162 162 223 450
 464 464 464 464 88 88 112 112 18 18 44 44 44 400 416 416 424 424 424 424
 426 426 426 162 162 162 162 162 162 464 464 209 209 464 88 88 112 112 18 18
 44 44 400 400 400 416 424 424 126 126 126 126 162 162 162 162 162 162 162 464
 464 209 209 209 88 88 112 112 18 18 44 44 44 400 400 473 473 126 126 126
 126 126 126 162 162 162 162 162 415 415 415 464 209 209 88 88 428 112 154 147
 44 44 44 400 400 473 126 126 126 126 126 126 126 162 162 162 162 162 415 415
 415 415 204 204 428 428 428 154 154 154 154 154 311 311 311 311 213 213 213 213
 213 429 429 429 162 162 162 415 415 415 415 204 204 159 159 159 159 159 154 154
 154 154 311 311 311 311 213 213 213 213 213 429 429 429 429 162 356 356 415 415
 273 273 204 159 159 159 159 159 154 154 154 311 311 311 311 311 35 213 213 213
 213 429 429 307 307 356 356 356 356 356 356 186 159 159 159 159 159 159 154 247
 247 311 311 311 311 311 35 35 213 213 213 429 307 307 307 356 356 356 356 356
 356 186 186 159 159 159 159 159 247 247 247 311 311 311 311 311 35 35 35 253
 69 307 307 307 356 356 356 356 356 356 356 186 159 159 159 159 159 377 377 106
 106 394 394 394 394 394 295 295 253 253 253 253 101 101 356 356 356 356 356 356
 356 48 48 433 433 433 377 377 377 377 377 394 394 394 394 394 295 295 295 253
 253 103 101 101 356 356 356 356 356 356 48 48 48 433 266 266 377 377 377 377
 377 87 394 394 394 295 295 295 295 253 469 469 469 469 356 356 356 356 356 356
 48 48 48 266 266 266 266 377 377 377 377 490 490 490 394 295 295 295 295 469
 469 469 469 469 199 199 199 356 356 356 346 48 158 266 266 266 266 266 417 417
 417 490 490 490 283 181 321 295 469 469 469 469 469 469 199 199 199 199 356 356
 346 346 346 266 266 266 266 266 417 417 417 490 490 283 283 181 181 321 419 419
 469 469 469 469 199 199 199 330 330 330 346 346 346 158 266 266 266 266 417 115
 115 490 490 458 458 181 181 181 419 419 419 419 469 122 122 122 122 330 330 330
 354 354 354 158 179 179 179 179 115 115 115 115 458 458 458 458 181 1 419 419
 419 419 419 122 122 122 122 330 330 330 330 354 354 179 179 179 179 179 466 115
 115 458 458 458 458 458 1 1 1 419 419 419 122 122 122 122 122 330 330 330
 330 436 306 306 306 179 179 466 466 466 466 458 458 458 458 458 1 1 1 1
 276 276 217 122 122 122 122 330 330 330 227 306 306 306 306 306 179 466 466 466
 466 466 458 458 458 1 1 1 1 1 276 276 276 122 122 122 122 330 330 330
 227 306 306 306 306 306 179 466 466 466 466 466 52 52 52 1 1 1 1 1
 276 276 276 276 221 221 221 46 46 227 227 79 132 132 132 132 132 466 466 466
 466 466 185 185 185 185 1 1 1 312 276 276 276 221 221 221 221 46 46 46
 480 480 132 132 132 132 47 116 116 116 116 116 185 185 185 185 10 10 10 312
 312 312 312 221 221 221 221 46 46 46 480 480 480 132 132 368 452 452 116 116
 116 116 185 185 185 10 10 10 10 10 312 312 312 221 221 221 221 46 46 480
 480 480 480 480 368 368 452 452 42 42 42 166 185 185 185 166 10 10 10 10
 312 216 216 216 264 264 264 264 480 480 480 480 480 480 452 452 452 452 42 42
 42 166 166 166 166 166 10 10 10 10 216 216 216 216 264 264 264 223 223 480
 373 36 373 373 373 452 452 452 145 42 145 145 166 166 166 166 424 424 424 424
 426 104 104 216 264 264 223 223 223 223 373 373 373 373 373 82 82 145 145 145
 145 145 166 166 166 424 424 424 424 424 426 426 426 104 264 223 223 223 223 223
 373 373 373 373 373 82 82 82 145 145 145 145 145 166 416 424 424 424 424 424
 426 426 426 426 162 162 223 223 223 223 464 464 464 464 82 82 82 82 145 145
 145 44 44 416 416 424 424 424 424 424 426 426 426 162 162 162 162 223 223 223
 209 209 209 209 88 88 88 82 82 44 44 44 44 416 416 416 424 424 424 126
 126 459 459 162 162 162 162 162 162 209 209 209 209 209 88 88 88 88 88 44
 44 44 44 400 416 416 424 424 126 126 126 126 162 162 162 162 162 162 76 209
 209 209 209 209 88 88 88 88 147 147 44 44 44 44 400 416 424 126 126 126
 126 126 126 162 162 162 162 162 76 76 76 209 209 209 88 88 88 147 147 147
 147 44 44 44 400 416 126 126 126 126 126 126 126 162 162 162 162 162 76 76
 76 209 209 209 159 88 159 147 147 147 147 44 44 311 311 126 126 126 126 126
 126 126 126 162 162 162 162 162 76 76 273 273 273 159 159 159 159 159 154 154
 154 154 311 311 311 311 213 213 213 213 213 429 429 307 307 307 399 399 399 399
 273 273 273 159 159 159 159 159 247 247 247 311 311 311 311 311 311 213 213 213
 213 307 307 307 307 307 399 399 399 399 273 273 273 159 159 159 159 159 247 247
 247 247 311 311 311 311 311 69 69 69 69 307 307 307 307 356 399 399 399 356
 273 273 273 159 159 159 159 159 247 247 247 247 311 311 311 311 69 69 69 69
 69 307 307 307 307 356 356 356 356 356 356 273 273 159 159 159 159 159 247 247
 247 247 311 311 311 311 69 69 69 69 69 69 307 307 356 356 356 356 356 356
 356 356 48 159 159 159 377 377 377 377 87 87 87 87 394 394 69 69 69 69
 69 469 307 307 356 356 356 356 356 356 48 454 454 70 70 70 70 377 377 377
 87 87 87 87 394 295 295 295 69 69 469 469 469 199 199 199 356 356 356 356
 454 454 454 70 70 70 70 70 417 417 417 87 87 87 87 321 321 321 321 469
 469 469 469 199 199 199 199 356 356 356 454 454 454 70 70 70 70 70 417 417
 417 417 490 490 283 321 321 321 321 469 469 469 469 199 199 199 199 199 356 454
 349 349 349 70 70 70 70 70 417 417 417 417 490 283 283 298 321 321 321 469
 469 469 469 199 199 199 199 199 330 330 346 346 346 70 70 70 70 70 417 417
 417 417 458 458 458 181 298 321 321 419 469 469 469 199 199 199 199 330 330 330
 436 436 436 436 179 179 179 179 417 115 115 86 458 458 458 458 458 1 419 419
 4 4 4 122 122 122 122 330 330 330 436 436 436 436 179 179 179 66 466 115
 86 86 458 458 458 458 458 1 1 4 4 4 4 122 122 122 122 330 330 330
 436 436 436 306 306 179 179 466 466 466 466 86 458 458 458 458 1 1 1 1
 276 4 4 122 122 122 122 330 330 330 436 436 306 306 306 306 179 466 466 466
 466 86 86 458 458 458 325 325 325 325 276 276 276 221 221 221 221 330 330 330
 436 436 306 306 306 306 306 466 466 466 466 466 86 185 385 325 325 325 325 325
 276 276 276 221 221 221 221 221 330 330 184 184 306 132 306 306 306 343 343 343
 343 343 185 185 185 325 325 325 325 325 276 276 276 221 221 221 221 221 221 221
 184 184 184 132 132 368 368 343 343 343 343 343 185 185 185 185 325 325 325 325
 276 276 276 221 221 221 221 221 46 184 480 480 480 170 368 368 368 343 343 343
 343 343 185 185 185 185 382 382 382 382 276 276 221 221 221 221 221 221 221 184
 480 480 480 170 368 368 368 368 343 343 343 343 185 185 185 166 10 382 10 10
 276 276 264 264 264 264 264 264 264 480 36 36 36 170 368 368 368 368 42 42
 42 166 185 185 185 166 382 382 10 382 104 104 104 104 264 264 264 264 264 53
 36 36 36 36 368 368 368 200 200 200 200 200 166 166 166 166 424 424 424 424
 104 104 104 104 264 264 264 223 223 53 373 36 373 373 373 82 82 200 200 200
 200 200 200 166 166 424 424 424 424 424 459 104 104 104 264 264 223 223 223 53
 373 373 373 373 82 82 82 82 200 200 200 200 44 416 416 416 424 424 424 424
 459 459 459 104 264 162 223 223 223 53 209 209 209 209 82 82 82 82 82 200
 44 44 44 416 416 416 424 424 424 424 459 459 459 162 162 162 162 162 223 53
 209 209 209 209 88 88 88 88 88 44 44 44 44 416 416 416 416 479 479 126
 459 459 459 162 162 162 162 162 162 209 209 209 209 209 88 88 88 88 88 44
 44 44 44 44 416 416 479 479 126 126 126 126 126 162 162 162 162 162 76 76
 209 209 209 209 88 88 88 88 147 147 44 44 44 44 416 479 479 479 126 126
 126 126 126 108 108 108 162 76 76 76 76 209 209 209 88 88 88 88 147 147
 147 44 44 44 44 479 479 126 126 126 126 126 126 108 108 108 108 76 76 76
 76 209 209 209 88 88 88 147 147 147 147 44 44 44 44 126 126 126 126 126
 126 126 126 307 108 108 108 76 76 76 76 273 273 159 159 159 159 159 147 147
 147 252 252 311 311 311 126 126 126 126 126 126 307 307 307 307 399 399 399 76
 273 273 273 159 159 159 14 159 247 247 247 247 311 311 311 311 69 69 69 69
 69 307 307 307 307 307 399 399 399 399 273 273 273 159 159 14 14 159 247 247
 247 247 311 311 311 311 69 69 69 69 69 307 307 307 307 399 399 399 399 399
 273 273 273 159 159 14 14 159 247 247 247 247 311 311 311 311 69 69 69 69
 69 307 307 307 307 356 399 399 399 356 356 273 15 15 159 159 159 247 247 247
 247 247 87 311 311 69 69 69 69 69 69 69 307 307 307 356 356 356 356 356
 356 454 15 15 70 70 70 377 247 247 87 87 87 87 87 69 69 69 69 69
 69 69 307 307 356 356 356 356 356 356 454 454 454 70 70 70 70 70 417 417
 87 87 87 87 87 321 321 69 69 69 69 469 469 199 199 199 356 356 356 356
 454 454 454 70 70 70 70 70 417 417 417 87 87 87 87 321 321 321 321 69
 469 469 469 199 199 199 199 199 356 454 454 454 454 70 70 70 70 70 417 417
 417 417 87 87 298 298 321 321 321 469 469 469 469 199 199 199 199 199 199 454
 454 349 454 70 70 70 70 70 417 417 417 417 417 86 298 298 298 321 321 321
 469 469 469 199 199 199 199 199 199 454 436 349 436 70 70 70 70 70 417 417
 417 86 86 86 298 298 298 298 321 4 4 4 4 4 199 199 199 199 330 330
 436 436 436 436 70 70 70 66 417 417 86 86 86 86 86 298 298 298 4 4
 4 4 4 4 122 122 122 330 330 330 436 404 436 436 436 66 66 66 66 86
 86 86 86 86 86 458 458 298 4 4 4 4 4 4 122 122 122 330 330 330
 436 436 436 436 306 66 66 66 66 57 86 86 86 86 86 86 325 325 325 4
 4 4 4 4 122 122 122 330 330 330 436 436 436 436 306 306 66 66 57 57
 86 86 385 385 385 385 325 325 325 325 4 4 4 221 221 221 221 221 330 330
 436 436 306 306 306 306 306 57 57 57 57 385 385 385 385 385 325 325 325 325
 276 276 276 221 221 221 221 221 221 21 184 184 306 132 306 368 368 343 343 343
 343 385 385 385 385 382 325 325 325 325 276 276 221 221 221 221 221 221 221 221
 184 184 184 170 368 368 368 343 343 343 343 343 185 185 185 382 382 325 325 325
 276 276 221 221 221 221 221 221 221 184 184 184 184 170 368 368 368 368 343 343
 343 343 185 185 185 382 382 382 382 382 382 422 422 221 221 221 221 221 221 184
 184 184 170 170 368 368 368 368 343 343 343 343 185 185 185 382 382 382 382 382
 382 422 422 264 264 264 264 264 264 184 53 53 170 170 368 368 368 368 200 200
 200 200 185 185 185 382 382 382 382 382 104 104 104 104 264 264 264 264 53 53
 53 53 170 170 368 368 368 200 200 200 200 200 200 338 416 416 382 382 382 382
 104 104 104 104 264 264 264 264 53 53 53 53 53 170 82 82 82 200 200 200
 200 200 200 338 416 416 416 424 424 424 459 104 104 104 264 264 264 223 53 53
 53 53 373 373 82 82 82 82 200 200 200 200 338 338 416 416 416 424 424 424
 459 459 459 459 264 264 223 223 53 53 209 209 209 209 88 88 82 82 82 200
 44 44 44 338 416 416 416 424 424 459 459 459 459 459 162 162 162 162 53 209
 209 209 209 209 88 88 88 88 88 44 44 44 44 338 338 416 479 479 479 479
 459 459 363 363 108 108 108 108 209 209 209 209 209 209 88 88 88 88 28 44
 44 44 44 44 338 479 479 479 479 479 126 363 363 363 108 108 108 108 76 76
 209 209 209 209 88 88 88 28 28 28 44 44 44 44 96 479 479 479 479 126
 126 363 363 108 108 108 108 76 76 76 76 209 209 209 88 88 88 28 28 147
 147 44 44 96 96 479 479 479 126 126 126 126 363 108 108 108 108 76 76 76
 76 209 209 209 88 88 88 28 28 147 147 44 96 96 96 479 479 126 126 126
 126 126 363 108 108 108 108 76 76 76 76 273 273 273 159 14 14 28 28 147
 147 252 252 252 252 252 69 69 126 126 126 126 307 307 307 108 399 399 76 76
 273 273 273 273 159 14 14 14 247 247 247 247 252 252 252 252 69 69 69 69
 69 69 307 307 307 307 399 399 399 399 273 273 273 15 159 14 14 14 247 247
 247 247 311 311 311 69 69 69 69 69 69 69 307 307 307 399 399 399 399 399
 273 273 15 15 15 14 14 280 247 247 247 247 311 311 311 69 69 69 69 69
 69 407 307 307 307 399 399 399 399 399 273 15 15 15 15 15 280 280 247 247
 247 247 87 471 311 69 69 69 69 69 69 407 407 307 307 356 356 356 356 356
 155 15 15 15 15 15 70 280 247 247 87 87 87 87 87 69 69 69 69 69
 69 407 407 407 199 356 356 356 356 356 454 454 15 70 70 70 70 417 417 417
 87 87 87 87 87 69 69 69 69 69 69 407 407 199 199 199 199 356 356 356
 454 454 454 70 70 70 70 417 417 417 417 87 87 87 298 37 37 37 37 69
 69 469 199 199 199 199 199 199 199 234 454 454 454 70 70 70 70 70 417 417
 417 417 87 298 298 298 37 37 37 37 469 469 469 199 199 199 199 199 199 454
 454 454 454 70 70 70 70 70 417 417 417 417 417 298 298 298 298 37 37 37
 4 469 199 199 199 199 199 199 199 234 176 176 176 70 70 70 70 70 417 417
 417 86 86 86 298 298 298 298 37 4 4 4 4 4 199 199 199 199 199 436
 436 436 436 436 70 70 66 66 66 417 86 86 86 86 86 298 298 298 4 4
 4 4 4 4 4 122 199 330 330 436 436 436 436 436 436 66 66 66 66 66
 86 86 86 86 86 298 298 298 4 4 4 4 4 4 4 122 122 330 330 436
 436 436 436 436 436 66 66 66 66 57 57 86 86 86 385 385 385 325 4 4
 4 4 4 4 4 122 221 330 21 436 21 436 436 436 436 66 66 66 57 57
 57 86 385 385 385 385 325 325 325 4 4 4 4 4 221 221 221 21 21 21
 21 21 436 436 306 306 66 57 57 57 57 385 385 385 385 385 325 325 325 325
 4 276 4 221 221 221 221 221 21 21 21 21 21 21 306 368 368 57 57 57
 57 385 385 385 385 382 382 325 325 325 325 276 221 221 221 221 221 221 21 21
 184 184 184 170 170 368 368 343 343 343 343 343 385 385 385 382 382 382 382 382
 382 422 422 221 221 221 221 221 21 184 184 184 170 170 170 368 368 368 343 343
 343 343 73 185 382 382 382 382 382 382 382 422 422 422 221 221 221 221 21 184
 184 184 170 170 170 368 368 368 343 343 343 343 73 73 382 382 382 382 382 382
 382 422 422 422 264 264 264 264 264 184 53 53 170 170 170 368 368 368 200 200
 200 200 200 73 382 382 472 382 382 382 422 422 422 422 264 264 264 264 53 53
 53 53 170 170 170 368 368 200 200 200 200 200 200 338 338 382 472 382 382 382
 422 422 104 422 264 264 264 264 53 53 53 53 53 170 170 299 299 200 200 200
 200 200 338 338 338 416 416 416 210 137 459 422 104 104 264 264 264 264 53 53
 53 53 53 170 299 299 299 82 200 200 200 200 338 338 338 416 416 416 210 210
 459 459 459 104 264 264 264 223 53 53 209 209 209 209 88 88 82 82 200 200
 44 44 338 338 338 416 416 479 479 210 459 459 459 363 363 162 162 249 53 209
 209 209 209 209 88 299 299 299 28 44 44 44 44 338 338 479 479 479 479 210
 363 363 363 363 108 108 108 240 240 209 209 209 209 209 88 88 88 28 28 28
 44 44 44 338 338 479 479 479 479 479 363 363 363 363 108 108 108 240 240 209
 209 209 209 209 88 88 88 28 28 28 28 44 96 96 96 479 479 479 479 479
 363 363 363 363 108 108 108 108 76 76 76 209 209 209 88 88 28 28 28 28
 28 44 96 96 96 479 479 479 479 126 363 363 363 363 108 108 108 108 76 76
 76 138 138 138 88 88 28 28 28 28 28 130 96 96 96 479 479 479 126 126
 363 363 363 363 108 108 108 108 76 76 76 273 273 15 29 29 29 29 28 130
 130 130 252 252 252 252 69 69 69 69 69 363 363 307 307 108 108 108 76 76
 273 273 273 15 29 29 29 29 29 247 130 130 252 252 252 252 69 69 69 69
 69 69 307 307 307 117 117 399 399 399 155 273 15 15 15 29 29 29 29 247
 247 130 471 471 471 471 69 69 69 69 69 69 307 307 117 117 117 399 399 399
 155 15 15 15 15 15 280 280 280 247 247 247 471 471 471 471 69 69 69 69
 69 407 407 93 117 117 117 399 155 155 155 15 15 15 15 15 280 280 280 247
 398 398 471 471 471 69 69 69 69 69 407 407 407 93 93 117 117 155 155 155
 155 15 15 15 15 280 280 280 280 398 398 87 87 471 471 406 406 406 69 69
 69 407 407 93 93 93 356 155 155 155 234 234 234 15 15 280 280 280 280 398
 398 87 87 87 442 442 406 69 69 69 69 194 194 93 199 199 199 155 155 155
 234 234 234 234 70 70 70 417 417 417 417 87 87 442 442 442 37 37 37 194
 194 194 194 199 199 199 199 199 234 234 234 234 234 234 70 70 70 70 417 417
 417 161 161 442 442 442 37 37 37 194 194 194 194 199 199 199 199 199 234 234
 234 176 234 234 70 70 70 70 417 417 161 161 161 298 298 298 298 37 37 37
 194 194 194 199 199 199 199 199 234 234 176 176 176 234 70 70 70 66 417 161
 161 161 86 86 298 298 298 298 4 4 4 4 4 4 199 199 199 199 234 234
 176 176 176 153 153 70 66 66 66 161 161 86 86 86 298 298 298 298 4 4
 4 4 4 4 4 4 199 457 457 436 436 436 436 153 153 66 66 66 66 161
 86 86 86 86 86 298 298 298 4 4 4 4 4 4 4 4 122 21 21 436
 436 436 436 436 153 66 66 66 66 57 57 86 86 385 385 385 298 17 17 4
 4 4 4 4 4 4 221 21 21 21 21 21 436 153 153 66 66 66 57 57
 57 385 385 385 385 385 385 325 17 17 4 4 4 4 221 221 221 21 21 21
 21 21 357 357 153 410 66 66 57 57 57 385 385 385 385 348 348 382 382 17
 17 17 4 221 221 221 221 21 21 21 21 21 357 357 357 183 183 183 57 57
 57 385 385 385 385 348 382 382 382 382 310 310 221 221 221 221 221 21 21 21
 21 357 357 357 170 361 183 183 183 343 40 40 385 73 348 382 382 382 382 382
 310 422 422 422 291 221 221 21 21 21 477 477 170 170 170 361 368 183 343 343
 343 73 73 73 73 382 382 382 382 310 310 422 422 422 422 422 221 477 477 477
 477 170 170 170 170 368 368 368 343 343 343 73 73 73 73 382 382 382 382 382
 310 422 422 422 422 422 264 477 477 477 53 170 170 170 170 170 368 368 200 200
 200 200 73 73 73 472 472 472 382 382 422 422 422 422 422 264 264 477 477 53
 53 53 170 170 170 299 299 299 200 200 200 200 200 338 338 472 472 472 382 137
 137 422 422 422 422 264 264 264 53 53 53 53 170 170 299 299 299 299 200 200
 200 200 338 338 338 378 378 210 210 137 137 422 422 422 422 264 264 53 53 53
 53 53 170 299 299 299 299 299 200 200 200 200 338 338 338 416 416 210 210 210
 210 363 363 363 422 108 249 249 53 53 209 209 209 299 299 299 299 299 200 200
 44 44 338 338 338 338 479 479 210 210 210 363 363 363 363 108 249 249 249 53
 334 334 334 334 299 299 299 299 299 140 140 140 140 338 338 432 479 479 210 210
 363 363 363 363 108 108 240 240 240 240 334 334 334 337 337 337 337 28 28 28
 140 140 140 140 432 432 479 479 479 342 363 363 363 363 108 108 240 240 240 240
 138 138 138 138 337 337 337 28 28 28 28 140 140 96 432 432 479 479 479 342
 363 363 363 363 108 108 108 240 240 240 138 138 138 138 337 337 28 28 28 28
 28 130 96 96 96 479 479 479 479 342 363 363 363 363 108 108 108 240 240 76
 138 138 138 138 337 337 28 28 28 28 130 130 130 96 96 479 479 479 314 314
 314 363 363 363 108 108 108 240 240 76 190 138 138 138 463 29 29 29 29 130
 130 130 130 252 252 252 479 314 314 314 314 363 363 363 117 117 117 117 190 190
 190 190 190 15 463 463 29 29 29 51 130 130 130 471 471 471 69 69 69 314
 69 69 307 117 117 117 117 117 155 155 155 155 15 15 463 463 29 29 29 51
 51 130 471 471 471 471 69 344 69 69 69 69 93 93 117 117 117 117 155 155
 155 121 15 15 15 280 280 280 280 51 398 398 471 471 471 471 69 69 69 69
 69 407 93 93 117 117 117 155 155 155 155 121 121 15 15 280 280 280 280 398
 398 398 471 471 471 471 406 406 69 109 109 407 93 93 93 117 117 155 155 155
 155 121 15 15 15 280 280 280 280 398 398 398 398 471 471 406 406 406 406 109
 109 407 93 93 93 93 117 155 155 155 234 234 234 234 234 280 280 280 398 398
 398 398 398 442 442 442 406 406 69 69 194 194 194 93 93 93 199 155 155 155