# vtk DataFile Version 2.0
Data set from IO Version 6.4.197.9a0dee2
ASCII

DATASET RECTILINEAR_GRID
DIMENSIONS 31 31 31
X_COORDINATES 31 float
-1.116667 1.116667 3.350000 5.583333 7.816666 10.049999 12.283332 14.516665 16.749998 18.983332 21.216665 23.449997 25.683331 27.916664 30.149996 32.383331 34.616665 36.849998 39.083332 41.316666 43.549999 
45.783329 48.016663 50.249996 52.483330 54.716663 56.949997 59.183331 61.416660 63.649998 65.883324 
Y_COORDINATES 31 float
-1.116667 1.116667 3.350000 5.583333 7.816666 10.049999 12.283332 14.516665 16.749998 18.983332 21.216665 23.449997 25.683331 27.916664 30.149996 32.383331 34.616665 36.849998 39.083332 41.316666 43.549999 
45.783329 48.016663 50.249996 52.483330 54.716663 56.949997 59.183331 61.416660 63.649998 65.883324 
Z_COORDINATES 31 float
-1.116667 1.116667 3.350000 5.583333 7.816666 10.049999 12.283332 14.516665 16.749998 18.983332 21.216665 23.449997 25.683331 27.916664 30.149996 32.383331 34.616665 36.849998 39.083332 41.316666 43.549999 
45.783329 48.016663 50.249996 52.483330 54.716663 56.949997 59.183331 61.416660 63.649998 65.883324 
CELL_DATA 27000
SCALARS FeatureIds int 1
LOOKUP_TABLE default
 150 210 210 272 272 272 189 189 86 86 86 175 175 175 266 266 266 266 230 230
 293 293 326 326 326 165 165 165 150 150 150 150 210 272 272 272 95 95 187 187
 187 175 175 175 266 266 266 266 230 230 293 293 293 326 526 526 526 150 150 150
 150 150 150 272 272 272 95 95 187 187 187 175 175 175 266 266 266 266 230 388
 388 388 388 388 526 526 379 379 150 150 166 231 231 272 272 272 346 346 187 187
 187 175 175 175 45 266 364 364 364 388 388 388 388 388 526 379 379 379 166 166
 231 231 231 231 143 346 346 346 346 287 287 287 69 45 45 45 364 364 364 364
 388 388 388 388 38 38 38 215 215 166 231 231 231 143 143 346 346 346 346 287
 287 287 69 45 45 45 364 364 364 364 521 521 521 38 38 38 38 215 215 231
 231 231 231 231 143 346 346 346 346 287 287 287 69 45 45 45 364 364 364 364
 521 521 521 38 38 38 38 215 215 231 231 231 231 231 143 233 233 233 233 233
 287 287 439 439 45 45 443 443 443 364 521 521 521 38 38 38 38 215 215 231
 485 485 485 485 259 259 259 233 233 302 302 302 439 439 155 155 443 443 443 443
 443 475 475 475 3 3 3 215 215 485 485 485 485 485 259 259 259 259 302 302
 302 155 155 439 155 155 443 443 443 443 443 475 475 475 3 3 3 3 304 485
 197 197 197 197 259 259 259 259 302 302 302 155 155 155 155 155 443 443 443 443
 443 475 475 475 3 3 3 3 304 197 197 197 197 15 15 15 15 259 302 302
 155 155 155 155 155 155 155 443 443 420 420 420 475 391 3 3 3 83 83 197
 197 197 15 15 15 15 15 15 15 155 155 155 155 155 155 155 155 443 420 420
 420 420 414 414 414 414 83 83 83 83 501 501 501 15 15 15 15 15 15 419
 155 155 155 155 155 155 361 361 361 420 420 420 414 414 414 414 59 59 83 83
 501 501 501 15 15 15 15 15 15 8 8 8 155 155 155 155 361 361 361 420
 420 420 414 414 414 414 492 492 492 492 501 501 501 501 15 15 15 452 452 8
 8 8 8 8 155 409 361 361 420 420 420 420 298 298 298 298 492 492 492 492
 501 501 501 501 15 15 15 403 403 8 8 8 8 8 409 409 409 409 409 21
 420 298 298 298 298 298 492 492 492 353 353 505 505 517 517 517 403 403 403 403
 8 351 351 351 409 409 409 409 409 255 255 298 298 298 298 298 298 492 492 353
 353 353 205 517 517 517 403 403 403 403 67 67 67 67 409 409 409 409 409 255
 255 298 298 298 298 298 298 486 486 353 353 353 517 517 517 517 517 403 403 67
 67 67 67 67 409 409 409 409 409 255 255 255 298 298 298 298 486 486 486 486
 510 510 510 517 44 44 44 44 403 67 67 67 67 67 409 409 409 409 409 255
 255 255 298 298 298 298 486 486 486 486 510 510 510 44 44 44 44 44 359 359
 359 359 67 251 117 117 117 409 76 76 76 76 298 305 298 153 486 486 486 486
 510 510 510 44 44 44 44 214 214 359 359 359 359 251 251 251 251 251 76 76
 76 76 305 305 305 153 79 79 79 79 225 225 225 225 214 214 214 214 214 359
 359 359 359 56 251 251 251 251 251 76 76 149 149 305 149 153 79 79 79 79
 225 225 225 104 214 214 214 214 214 32 359 359 359 251 251 251 251 251 251 76
 75 149 149 149 149 153 79 79 79 225 225 225 225 104 104 214 214 214 214 32
 32 359 251 251 251 251 251 251 6 6 75 75 149 149 149 149 79 79 79 225
 225 225 225 104 164 164 164 214 214 86 367 367 251 251 251 251 6 6 6 6
 75 75 149 149 149 149 79 242 242 225 276 225 225 104 164 164 164 376 86 86
 86 367 367 251 251 6 6 6 6 299 299 326 326 326 326 326 326 242 242 242
 276 210 210 210 376 376 376 376 86 86 86 86 86 163 163 163 6 6 6 299
 299 326 326 326 326 165 165 242 242 242 210 210 210 210 272 272 376 189 86 86
 86 86 175 175 163 266 266 6 230 230 326 326 326 326 326 165 165 165 242 150
 150 150 210 284 284 284 95 95 95 86 86 175 175 175 163 266 266 266 230 230
 293 293 326 326 326 526 526 150 150 150 150 150 284 284 284 284 95 95 95 95
 175 175 175 175 175 266 266 266 230 293 293 293 293 326 526 382 526 150 150 150
 150 150 150 284 284 272 95 95 95 187 187 175 175 175 175 266 266 364 230 293
 293 293 293 293 526 526 526 150 150 150 150 231 231 231 272 272 95 95 187 187
 187 175 175 175 175 364 364 364 364 388 388 388 388 388 38 38 38 38 166 166
 231 231 231 143 143 346 346 346 287 287 287 287 69 69 69 364 364 364 364 364
 388 388 388 38 38 38 38 38 166 166 231 231 231 143 143 346 346 346 287 287
 287 287 69 69 69 364 364 364 364 364 521 521 521 38 38 38 38 38 215 231
 231 231 231 143 143 233 233 233 233 287 287 287 69 69 69 364 364 364 364 364
 521 273 521 38 38 38 38 38 215 231 231 231 231 231 143 233 233 233 233 233
 287 287 69 69 69 364 364 443 364 364 273 273 273 38 38 38 38 38 215 231
 231 231 231 231 259 259 259 233 233 302 302 302 439 439 439 443 443 443 443 443
 443 475 475 475 3 3 3 3 215 231 197 197 197 259 259 259 259 259 302 302
 302 302 439 439 439 443 443 443 443 443 443 475 475 475 3 3 3 3 304 231
 197 197 197 197 259 259 259 259 302 302 302 155 155 439 155 155 443 443 443 443
 443 475 475 475 3 3 3 3 304 197 197 197 197 15 15 15 15 259 302 302
 302 155 155 155 155 155 443 443 443 443 420 475 475 475 3 3 90 90 90 197
 197 197 197 15 15 15 15 15 15 419 155 155 155 155 155 155 365 365 365 420
 420 420 414 414 414 414 90 90 90 90 197 501 501 15 15 15 15 15 419 419
 419 155 399 399 399 399 365 365 365 420 420 420 414 414 414 414 59 59 90 90
 501 501 501 15 15 15 15 452 452 419 8 8 399 399 399 399 365 365 420 420
 420 420 414 414 414 414 492 59 492 90 501 501 501 15 15 15 452 452 452 8
 8 8 8 399 399 399 365 365 420 420 420 420 298 298 298 298 492 492 492 492
 505 505 505 15 15 15 452 452 403 403 8 8 8 8 409 409 409 409 409 420
 420 298 298 298 298 298 492 492 492 492 505 505 505 517 517 517 403 403 403 403
 67 67 67 67 409 409 409 409 409 409 298 298 298 298 298 298 298 492 492 353
 353 353 517 517 517 517 403 403 403 403 67 67 67 67 409 409 409 409 409 409
 298 298 298 298 298 298 298 486 486 353 353 353 517 517 517 517 403 403 403 403
 67 67 67 67 409 409 409 409 409 409 255 298 298 298 298 298 486 486 486 486
 510 510 510 517 517 44 44 44 434 67 67 67 67 67 117 117 409 409 409 76
 76 76 298 298 298 298 486 486 486 486 510 510 510 44 44 44 44 44 434 434
 359 67 67 251 117 117 117 409 76 76 76 76 305 305 305 79 79 79 486 486
 510 510 510 44 44 44 44 44 434 359 359 359 359 251 251 117 251 251 76 76
 76 76 305 305 305 79 79 79 79 79 225 225 225 44 44 44 214 214 214 359
 359 359 251 251 251 251 251 251 76 76 76 76 305 305 305 79 79 79 79 79
 225 225 225 104 104 214 214 214 214 359 359 359 251 251 251 251 251 251 251 76
 75 75 305 305 305 79 79 79 79 225 225 225 225 104 104 164 164 214 214 367
 367 359 251 251 251 251 251 6 6 384 75 75 75 149 149 149 79 79 79 225
 225 225 225 104 164 164 164 164 376 367 367 367 367 251 251 251 6 6 6 6
 75 75 75 149 149 149 79 79 242 225 276 276 225 104 164 164 376 376 376 367
 367 367 367 251 251 6 6 6 6 6 326 326 326 326 326 326 165 242 276 276
 276 276 210 210 376 376 376 376 376 86 86 367 367 163 163 163 6 6 6 6
 326 326 326 326 326 165 165 242 276 276 276 210 210 284 284 376 376 376 376 86
 86 175 175 175 163 163 163 6 6 6 326 326 326 326 326 165 165 165 150 150
 150 150 284 284 284 284 95 95 95 95 175 175 175 175 163 163 163 266 230 293
 293 293 293 326 326 525 525 150 150 150 150 150 284 284 284 284 95 95 95 95
 175 175 175 175 175 266 266 266 230 293 293 293 293 326 526 526 526 150 150 150
 150 150 284 284 284 284 95 95 95 95 175 175 175 175 175 266 266 364 293 293
 293 293 293 293 526 526 526 150 150 150 150 231 231 231 284 284 95 95 187 187
 287 175 175 175 69 364 364 364 364 293 293 293 293 293 38 38 38 38 150 150
 231 231 231 231 143 144 346 346 287 287 287 69 69 69 69 364 364 364 364 364
 388 388 388 38 38 38 38 38 166 231 231 231 231 143 143 233 233 233 287 287
 287 69 69 69 69 364 364 364 364 364 364 273 38 38 38 38 38 38 231 231
 231 231 231 231 143 233 233 233 233 287 287 69 69 69 69 69 364 364 364 364
 273 273 273 38 38 38 38 38 231 231 231 231 231 231 231 233 233 233 233 233
 287 69 69 69 69 69 364 364 364 364 273 273 273 38 38 38 38 38 231 231
 231 231 231 231 259 259 233 233 233 302 302 302 439 439 439 443 443 443 443 443
 273 273 273 475 3 3 3 38 304 231 304 197 197 92 259 259 259 259 302 302
 302 302 439 439 439 443 443 443 443 443 273 475 475 475 3 3 3 3 304 304
 197 197 197 92 259 259 259 259 302 302 302 155 439 439 439 443 443 443 443 443
 475 475 475 475 3 3 3 304 304 304 197 197 197 92 15 15 15 259 302 302
 302 399 399 375 399 399 365 365 365 365 420 475 475 475 3 3 90 90 90 304
 304 197 197 15 15 15 15 15 419 419 419 399 399 399 399 399 365 365 365 420
 420 420 414 414 414 414 90 90 90 90 304 457 15 15 15 15 15 15 419 419
 419 399 399 399 399 399 365 365 365 420 420 420 414 414 414 414 90 90 90 90
 457 457 457 15 15 15 15 15 419 419 419 399 399 399 399 399 365 365 365 420
 420 420 414 414 414 414 90 90 90 90 457 457 457 15 15 15 15 452 419 419
 419 399 399 399 399 399 365 365 365 420 420 420 298 298 298 298 492 492 492 492
 494 494 505 256 15 15 15 452 403 403 403 8 8 399 409 409 409 409 409 420
 420 298 298 298 298 298 492 492 492 80 505 505 505 256 517 517 403 403 403 403
 403 67 67 409 409 409 409 409 409 409 298 298 298 298 298 298 298 492 492 80
 369 369 369 517 517 517 403 403 403 403 67 67 67 409 409 409 409 409 409 409
 298 298 298 298 298 298 298 486 486 369 369 369 369 517 517 517 517 403 403 403
 67 67 67 67 409 409 409 409 409 409 298 298 298 298 298 298 298 486 486 369
 369 369 369 517 517 44 44 44 434 434 67 67 67 67 409 409 409 409 409 76
 76 76 298 298 298 298 486 486 486 369 510 510 510 44 44 44 44 44 434 434
 434 67 67 67 117 117 117 409 76 76 76 76 298 305 298 36 79 79 486 369
 510 510 510 44 44 44 44 44 434 434 434 359 251 251 251 251 251 251 76 76
 76 76 305 305 305 36 79 79 79 79 225 225 225 225 44 44 214 214 434 434
 359 359 251 251 251 251 251 251 76 76 76 76 305 305 305 36 79 79 79 79
 225 225 225 104 104 214 214 214 214 359 359 359 251 251 251 251 251 251 384 384
 384 75 305 305 305 36 79 79 79 225 225 225 225 104 104 164 164 164 367 367
 367 367 251 251 251 251 251 6 384 384 384 75 75 149 149 36 79 79 79 225
 248 225 225 104 164 164 164 376 376 367 367 367 367 251 251 251 6 6 6 384
 384 75 75 75 149 36 79 79 276 276 276 276 276 104 376 376 376 376 376 367
 367 367 367 251 251 6 6 6 6 6 384 326 326 326 326 525 525 276 276 276
 276 276 276 276 376 376 376 376 376 367 367 367 367 163 163 163 6 6 6 6
 326 326 326 326 525 525 525 525 276 276 276 276 276 284 284 284 376 376 376 367
 367 367 175 175 163 163 163 6 6 6 326 326 326 326 525 525 525 525 150 276
 150 150 284 284 284 284 284 95 387 387 387 175 175 175 163 163 163 275 275 293
 293 293 293 429 525 525 525 525 150 150 150 150 284 284 284 284 284 95 95 95
 175 175 175 175 175 163 275 275 275 293 293 293 293 429 429 429 429 150 150 150
 150 150 150 284 284 284 284 95 95 95 113 175 175 175 175 163 275 364 446 446
 293 293 293 293 526 526 526 150 150 150 150 231 231 284 144 144 144 144 144 522
 113 113 175 69 69 364 364 364 364 446 293 293 293 293 38 38 38 38 150 150
 231 231 231 231 144 144 144 144 522 522 522 69 69 69 69 364 364 364 364 364
 446 446 388 38 38 38 38 38 166 231 508 231 231 231 144 144 144 144 522 522
 522 69 69 69 69 69 364 364 364 364 273 273 273 38 38 38 38 38 508 508
 508 231 231 231 231 233 233 233 233 522 522 69 69 69 69 69 364 364 364 364
 273 273 273 38 38 38 38 38 508 508 508 231 231 231 231 233 233 233 233 233
 522 69 69 69 69 69 364 364 364 273 273 273 273 273 38 38 38 38 508 508
 231 231 231 231 259 259 131 131 131 302 302 302 439 439 439 69 443 443 443 273
 273 273 273 475 3 3 3 38 304 508 304 304 304 92 259 259 131 131 131 302
 302 302 439 439 439 443 443 443 443 443 273 475 475 475 3 3 3 304 304 304
 304 304 92 92 92 259 131 131 131 302 302 302 375 375 375 375 443 443 443 443
 475 475 475 475 3 3 3 304 304 304 304 304 92 92 92 15 15 131 131 302
 302 399 375 375 375 399 365 365 365 365 420 475 475 475 3 90 90 90 304 304
 304 304 92 92 92 15 15 15 419 419 419 399 399 399 399 399 365 365 365 365
 420 420 414 414 218 218 90 90 90 304 304 457 457 15 15 15 15 15 419 419
 419 399 399 399 399 399 365 365 365 365 420 420 414 414 218 218 90 90 90 304
 457 457 457 15 15 15 15 15 419 419 419 399 399 399 399 399 365 365 365 365
 420 420 414 414 218 218 90 90 90 90 457 457 457 457 15 15 15 452 419 419
 419 399 399 399 399 399 365 365 303 303 420 420 298 298 298 218 218 492 80 80
 80 494 494 256 256 15 15 452 403 403 419 399 399 399 399 409 409 303 303 303
 420 298 298 298 298 298 218 80 80 80 80 494 494 256 256 517 403 403 403 403
 403 67 67 399 409 409 409 409 409 409 298 298 298 298 298 298 298 80 80 80
 369 369 369 256 517 517 517 403 403 403 67 67 67 409 409 409 409 409 409 409
 298 298 298 298 298 298 298 80 80 80 369 369 369 517 517 517 517 434 434 434
 67 67 67 67 409 409 409 409 409 409 409 298 298 298 298 298 298 486 80 369
 369 369 369 369 517 517 44 434 434 434 434 67 67 67 409 409 409 409 409 409
 76 298 298 298 298 298 345 486 486 369 369 369 369 369 44 44 44 434 434 53
 434 434 67 386 117 117 409 409 76 76 76 76 35 298 36 36 36 79 486 369
 510 510 510 44 44 44 44 434 434 434 434 434 251 251 251 251 385 385 385 76
 76 76 305 305 36 36 36 79 79 79 225 225 225 225 44 44 214 434 434 434
 434 434 251 251 251 251 385 385 385 384 384 384 305 305 36 36 36 79 79 79
 225 225 225 104 104 214 376 376 434 367 367 367 251 251 251 251 251 385 384 384
 384 384 305 305 36 36 36 79 79 225 248 248 225 104 104 164 376 376 367 367
 367 367 251 251 251 251 251 384 384 384 384 384 75 149 36 36 36 79 79 225
 248 248 225 104 164 376 376 376 376 367 367 367 367 251 251 251 6 6 384 384
 384 384 75 75 395 395 395 79 276 276 276 276 276 104 376 376 376 376 376 367
 367 367 367 367 163 6 6 6 6 384 384 384 326 326 525 525 525 276 276 276
 276 276 276 284 376 376 376 376 376 367 367 367 367 163 163 163 6 6 6 6
 384 326 326 429 525 525 525 525 276 276 276 276 276 284 284 284 376 376 376 387
 367 367 175 175 163 163 163 6 6 6 326 326 326 429 525 525 525 525 276 276
 150 150 284 284 284 284 220 220 387 387 387 387 175 175 163 275 275 275 275 446
 446 446 180 429 429 429 429 429 150 150 150 150 284 284 284 284 284 499 499 387
 387 387 175 175 40 275 275 275 275 446 446 446 180 180 429 429 429 429 150 150
 11 11 11 284 144 144 144 499 499 113 113 113 175 40 40 40 275 275 446 446
 446 446 180 180 180 180 429 429 150 150 11 11 11 11 144 144 144 144 113 113
 113 113 113 69 69 69 364 181 181 446 446 446 180 180 295 295 295 295 150 17
 508 11 11 144 144 144 144 144 522 522 522 69 69 69 69 69 364 181 181 446
 446 446 295 295 295 295 295 295 508 508 508 508 231 231 144 144 144 144 522 522
 522 69 69 69 69 69 364 364 181 446 446 273 295 295 295 295 295 295 508 508
 508 508 231 231 144 144 144 144 522 522 522 69 69 69 69 69 364 364 364 273
 273 273 273 295 295 295 295 295 508 508 508 508 231 231 188 188 188 188 522 522
 522 69 69 69 69 69 364 364 364 273 273 273 273 273 295 295 295 508 508 508
 508 231 231 188 188 188 188 131 131 522 224 224 69 69 69 69 443 443 443 273
 273 273 273 273 295 295 295 508 508 508 304 304 304 92 254 188 131 131 131 302
 302 467 467 467 467 467 443 443 443 443 273 273 475 442 442 3 3 304 304 304
 304 304 398 92 92 254 131 131 131 302 302 467 467 467 467 467 467 443 443 443
 442 442 442 442 442 3 304 304 304 304 304 398 398 92 92 15 307 131 411 411
 467 467 467 467 467 467 365 365 365 365 234 234 234 442 218 218 90 304 304 304
 304 398 398 92 307 307 307 307 411 411 411 399 399 399 399 399 365 365 365 365
 234 234 234 218 218 218 90 90 304 304 304 457 457 307 307 307 307 411 411 411
 411 399 399 399 399 399 365 365 365 365 234 234 234 218 218 218 218 90 90 304
 457 457 457 457 307 307 307 307 411 411 411 399 399 399 399 399 365 365 303 303
 234 234 234 218 218 218 218 218 90 457 457 457 457 457 307 15 307 307 419 411
 419 399 399 41 41 41 303 303 303 303 303 420 298 218 218 218 218 80 80 80
 80 80 494 256 256 15 307 512 512 512 146 146 146 41 41 41 303 303 303 303
 303 298 298 298 218 218 218 80 80 80 80 80 494 256 256 256 256 403 403 403
 146 146 146 146 41 409 409 303 303 303 303 298 298 298 298 298 80 80 80 80
 80 369 369 369 517 517 517 403 403 403 146 146 146 146 409 409 409 409 409 409
 160 298 298 298 298 298 80 80 80 80 369 369 369 369 517 517 324 324 434 434
 434 67 67 386 409 409 409 409 409 409 409 298 298 298 298 298 345 80 80 80
 369 369 369 369 517 324 324 324 434 434 434 434 386 386 386 409 409 409 409 268
 76 35 35 298 345 345 345 345 80 369 369 369 369 369 44 44 324 324 434 434
 434 434 386 386 386 385 385 385 385 385 76 35 35 35 345 345 345 345 80 369
 369 369 369 369 44 324 324 324 434 434 434 434 386 386 386 385 385 385 385 385
 76 35 35 35 345 345 345 345 491 491 225 225 225 225 507 324 324 324 434 434
 434 265 386 251 251 385 385 385 385 385 384 314 35 35 36 36 36 79 491 491
 225 225 225 507 507 507 507 507 434 434 367 367 265 251 371 371 385 385 385 384
 384 384 314 36 36 36 36 79 491 491 186 186 225 507 507 507 507 507 367 367
 367 367 367 251 371 371 371 385 384 384 384 384 384 395 395 395 395 491 491 491
 186 186 225 507 507 507 507 507 367 367 367 367 367 371 371 371 371 6 384 384
 384 384 384 395 395 395 395 491 276 276 276 276 276 507 507 507 507 376 339 339
 367 367 367 367 371 371 6 6 384 384 384 384 384 395 395 395 395 276 276 276
 276 276 276 507 507 507 507 376 387 387 367 367 367 367 163 163 275 275 275 384
 437 437 429 429 429 525 525 525 276 276 276 276 276 284 507 507 220 220 387 387
 387 387 175 175 163 275 275 275 275 275 437 429 429 429 429 525 525 525 276 276
 17 269 269 269 284 220 220 220 387 387 387 387 40 40 40 275 275 275 275 446
 446 446 180 429 429 429 429 429 429 296 17 17 17 284 284 220 220 499 499 499
 113 113 40 40 40 40 275 275 446 446 446 446 180 180 180 429 429 429 296 17
 17 11 17 17 144 144 144 499 499 113 113 113 40 40 40 40 275 181 446 446
 446 446 180 180 180 180 429 523 17 17 11 11 11 17 144 144 144 144 113 113
 113 113 113 40 40 40 181 181 181 181 446 446 180 180 180 295 295 295 17 17
 17 11 17 144 144 144 144 144 522 522 522 113 69 69 69 69 181 181 181 181
 446 446 180 295 295 295 295 295 295 17 508 508 17 144 144 144 144 144 522 522
 522 522 69 69 69 69 27 181 181 181 446 446 176 295 295 295 295 295 508 508
 508 508 231 144 144 144 144 144 522 522 522 522 69 69 69 69 27 27 181 181
 273 273 176 176 295 295 295 295 508 508 508 508 508 188 188 188 188 188 188 522
 522 224 69 69 69 69 513 513 181 273 273 273 273 176 295 295 295 295 508 508
 508 508 463 188 188 188 188 188 224 224 224 224 224 69 69 69 513 513 513 273
 273 273 442 442 295 250 295 295 508 508 304 398 398 254 254 254 254 188 224 224
 224 224 467 467 467 467 513 513 513 513 442 442 442 442 442 250 250 304 304 304
 304 398 398 92 254 254 254 254 224 224 224 467 467 467 467 467 513 513 513 513
 442 442 442 442 442 250 250 304 304 304 398 398 398 92 92 254 254 224 224 411
 224 467 467 467 467 467 467 513 513 352 352 442 442 442 442 218 304 304 304 304
 304 398 398 307 307 307 307 411 411 411 411 467 467 467 467 467 365 365 365 352
 352 234 234 218 218 218 218 304 304 304 304 398 398 307 307 307 307 411 411 411
 411 411 399 399 399 399 303 303 303 352 234 234 234 218 218 218 218 450 450 304
 457 457 457 307 307 307 307 411 411 411 411 399 399 399 41 41 303 303 303 303
 352 234 234 218 218 218 218 450 450 450 80 457 457 457 307 307 307 411 411 411
 411 399 41 41 41 41 303 303 303 303 303 160 160 218 218 218 218 218 80 80
 80 80 80 256 256 28 28 512 512 512 512 146 146 41 41 41 303 303 303 303
 303 160 160 218 218 218 218 80 80 80 80 80 80 256 256 256 28 512 512 512
 146 146 146 146 41 41 303 303 303 303 160 160 160 160 298 218 80 80 80 80
 80 80 80 369 517 28 28 28 512 512 146 146 146 146 41 409 409 409 409 160
 160 160 160 160 298 298 80 80 80 80 80 369 369 369 517 324 324 324 324 434
 146 146 146 146 386 498 498 409 268 268 160 160 160 298 345 345 80 80 80 80
 369 369 369 369 517 324 324 324 324 434 434 227 386 386 386 498 498 268 268 268
 268 35 35 35 345 345 345 80 80 369 369 369 369 412 412 324 324 324 324 434
 434 227 386 386 386 385 385 385 385 268 268 35 35 35 345 345 345 345 80 369
 412 412 412 412 412 324 324 324 324 434 227 227 386 386 386 385 385 385 385 385
 385 35 35 35 345 345 345 345 491 491 491 412 412 412 507 324 324 324 324 434
 265 265 265 386 386 385 385 385 385 385 385 314 314 35 36 36 36 491 491 491
 491 491 349 349 507 507 507 507 507 265 265 265 265 265 371 371 385 385 385 385
 384 314 314 314 36 36 491 491 491 491 186 186 186 507 507 507 507 507 507 265
 265 265 265 265 371 371 371 385 385 384 384 384 314 395 395 395 395 491 491 491
 186 186 186 507 507 507 507 507 339 339 339 265 265 265 371 371 371 385 437 437
 437 384 395 395 395 395 395 491 491 186 186 186 186 507 507 507 507 507 339 339
 339 265 265 265 371 371 371 437 437 437 437 437 395 395 395 395 395 491 491 186
 276 186 269 507 507 507 507 507 387 387 387 387 387 40 275 275 275 275 275 437
 437 437 429 429 429 429 429 429 26 26 276 269 269 507 507 507 220 220 387 387
 387 387 387 40 275 275 275 275 275 275 437 429 429 429 429 429 429 429 26 26
 296 269 269 269 269 220 220 220 220 387 387 387 40 40 40 275 275 275 275 446
 446 446 180 180 429 429 429 523 26 296 17 17 269 269 269 220 220 220 499 113
 113 113 40 40 40 40 275 275 446 446 446 446 180 180 180 429 523 523 296 296
 17 17 17 17 144 144 144 499 499 113 113 113 40 40 40 40 275 181 446 446
 446 446 180 180 180 180 523 523 296 296 17 17 17 17 144 144 144 144 113 113
 113 113 113 40 40 40 275 181 181 181 446 446 180 180 180 180 295 523 296 17
 17 17 17 17 144 144 144 144 522 522 113 113 113 69 69 69 27 181 181 181
 446 446 180 180 295 295 295 295 17 17 17 17 17 17 144 144 144 144 522 522
 522 522 69 69 69 20 27 27 27 181 446 176 176 176 295 295 295 295 295 508
 508 463 463 144 144 144 188 188 522 522 522 522 69 69 20 20 27 27 27 181
 446 176 176 176 295 295 295 295 508 508 463 463 463 463 188 188 188 188 188 224
 224 224 224 69 69 20 513 513 27 181 176 176 176 176 295 295 295 295 508 508
 463 463 463 463 188 188 188 188 224 224 224 224 224 467 467 513 513 513 513 513
 442 442 442 442 250 250 250 250 508 508 304 398 463 254 254 254 254 188 224 224
 224 224 467 467 467 467 513 513 513 513 442 442 442 442 250 250 250 250 200 304
 398 398 398 398 254 254 254 254 224 224 224 224 467 467 467 467 513 513 513 513
 442 442 442 442 442 250 250 250 304 304 398 398 398 398 254 254 254 224 224 224
 224 467 467 467 467 467 513 513 513 352 352 442 442 442 442 250 250 304 304 304
 398 398 398 307 307 307 307 224 411 411 411 467 467 467 467 467 467 513 352 352
 352 234 234 442 218 218 218 450 450 450 304 398 398 307 307 307 307 411 411 411
 411 411 467 467 467 467 303 303 303 352 352 234 234 218 218 218 218 450 450 450
 457 457 457 307 307 307 307 307 411 411 411 399 399 41 41 41 303 303 303 352
 352 352 234 218 218 218 218 450 450 450 80 80 66 307 307 307 307 28 512 512
 512 512 41 41 41 41 303 303 303 303 303 160 160 218 218 218 218 450 450 80
 80 80 80 256 307 28 28 28 512 512 512 512 146 41 41 41 303 303 303 303
 160 160 160 160 218 218 218 80 80 80 80 80 80 344 256 28 28 28 512 512
 512 146 146 41 41 41 303 303 303 160 160 160 160 160 160 218 80 80 80 80
 80 80 344 344 344 28 28 28 512 512 512 146 146 146 498 498 303 303 160 160
 160 160 160 160 160 218 80 80 80 80 80 80 344 412 412 208 28 28 512 512
 512 227 227 498 498 498 498 268 268 160 160 160 160 160 345 345 80 80 80 80
 412 412 412 412 412 324 324 324 324 227 227 227 227 386 498 498 498 268 268 268
 268 35 35 35 345 345 345 80 80 80 412 412 412 412 412 324 324 324 324 227
 227 227 386 386 386 498 498 385 268 268 268 35 35 35 345 345 345 345 80 80
 412 412 412 412 412 324 324 324 324 227 227 227 227 386 386 385 385 385 385 268
 268 35 35 35 35 345 345 345 491 491 491 412 412 412 349 324 324 324 227 227
 227 227 265 265 386 385 385 385 385 385 385 314 314 35 35 345 345 491 491 491
 491 491 349 349 349 349 507 511 265 265 265 265 265 265 371 371 385 385 385 385
 385 314 314 314 314 395 491 491 491 491 186 186 349 349 349 507 507 507 265 265
 265 265 265 265 371 371 371 385 385 385 384 314 314 314 395 395 395 491 491 491
 186 186 349 349 507 507 507 507 339 339 265 265 265 265 371 371 371 385 437 437
 437 437 314 395 395 395 395 491 491 186 186 186 349 507 507 507 507 507 339 339
 265 265 265 265 371 371 371 437 437 437 437 437 437 395 395 395 395 491 491 186
 186 269 269 507 507 507 507 220 387 387 387 387 265 40 40 275 275 275 437 437
 437 437 395 395 395 395 395 26 26 26 269 269 269 269 507 220 220 220 387 387
 387 387 387 40 40 275 275 275 275 437 437 437 429 429 429 429 429 26 26 26
 296 269 269 269 269 220 220 220 220 387 387 387 40 40 40 451 275 275 137 137
 137 137 180 180 429 429 523 523 26 296 296 17 269 269 269 220 220 220 220 113
 113 113 40 40 40 451 275 275 446 446 446 446 180 180 180 180 523 523 523 296
 17 17 17 17 17 144 144 499 499 113 113 113 40 40 40 451 451 446 446 446
 446 446 180 180 180 180 523 523 523 296 17 17 17 17 144 144 144 144 113 113
 113 113 113 40 40 451 451 181 181 446 446 446 180 180 180 180 295 523 523 17
 17 17 17 17 144 144 144 144 522 522 113 113 321 321 20 20 27 27 27 181
 446 446 460 460 295 295 295 295 17 17 17 17 17 17 144 144 144 144 522 522
 522 522 321 321 20 20 27 27 27 27 446 176 176 176 176 295 295 295 17 17
 463 463 463 17 144 188 188 188 188 438 522 224 321 321 20 20 27 27 27 27
 176 176 176 176 176 295 295 62 62 508 463 463 463 463 188 188 188 188 188 224
 224 224 224 20 20 20 513 513 513 513 176 176 176 176 378 295 250 62 62 508
 463 463 463 463 188 188 188 188 224 224 224 224 224 467 20 20 513 513 513 513
 378 378 378 378 250 250 250 250 200 200 200 463 463 463 188 188 188 188 224 224
 224 224 224 467 467 513 513 513 513 513 378 378 378 378 250 250 250 250 200 200
 200 398 398 333 254 254 254 224 224 224 224 224 467 467 467 467 513 513 513 513
 378 378 442 442 250 250 250 250 200 200 398 398 398 398 254 254 254 224 224 224
 224 224 467 467 467 467 513 513 513 352 352 442 442 442 378 378 250 450 450 200
 398 398 398 480 480 307 307 224 224 224 363 363 467 467 467 467 68 513 352 352
 352 352 234 442 218 218 218 450 450 450 66 66 529 480 480 307 307 411 411 411
 363 363 363 467 467 68 68 303 352 352 352 352 234 218 218 218 218 450 450 450
 66 66 66 480 480 307 307 307 411 411 363 363 363 363 41 68 303 303 303 352
 352 352 315 315 218 218 218 450 450 450 66 66 66 66 480 307 28 512 512 512
 512 512 363 41 41 41 303 303 303 303 160 160 160 160 218 218 218 450 450 80
 80 66 66 66 480 28 28 28 512 512 512 512 512 41 41 41 303 303 303 160
 160 160 160 160 160 218 218 80 80 80 80 344 344 344 208 28 28 28 512 512
 512 512 146 41 41 41 303 303 303 160 160 160 160 160 160 218 80 80 80 80
 344 344 344 344 208 208 28 28 512 512 512 512 146 498 498 498 498 303 160 160
 160 160 160 160 160 218 80 80 80 80 344 344 344 412 208 208 208 208 512 512
 227 227 227 227 498 498 498 498 268 160 160 160 160 160 160 345 80 80 80 80
 412 412 412 412 412 208 208 324 227 227 227 227 227 227 498 498 498 498 268 268
 160 160 160 33 33 345 345 80 80 80 412 412 412 412 412 412 324 511 227 227
 227 227 227 227 498 498 498 268 268 268 268 35 35 35 33 33 345 317 317 317
 412 412 412 412 412 412 511 511 227 227 227 227 227 227 386 385 385 385 268 268
 268 35 35 35 35 345 345 491 491 491 491 412 412 412 412 511 511 511 227 227
 227 227 227 227 227 385 385 385 385 385 314 314 314 35 35 345 491 491 491 491
 491 491 349 349 349 349 511 511 124 265 265 265 265 265 371 371 385 385 385 385
 314 314 314 314 61 61 491 491 491 491 491 186 349 349 349 507 507 511 124 124
 265 265 265 265 371 371 385 385 385 437 437 314 314 314 395 395 491 491 491 491
 186 186 349 349 507 507 507 507 339 265 265 265 265 265 371 371 371 385 437 437
 437 437 237 395 395 395 395 491 491 491 186 221 221 507 507 507 507 507 339 265
 265 265 265 265 96 96 371 437 437 437 437 437 237 395 395 395 395 491 491 491
 269 269 269 269 507 507 507 220 387 387 387 387 265 265 96 275 275 275 437 437
 437 437 237 449 395 395 395 26 26 26 269 269 269 269 507 220 220 220 220 387
 387 387 474 40 40 275 275 275 275 137 137 137 429 429 429 429 429 26 26 26
 296 269 269 269 240 240 220 325 325 325 474 474 474 474 451 451 451 137 137 137
 137 137 180 449 449 464 464 523 26 296 17 17 17 269 141 240 325 325 325 325
 474 474 474 451 451 451 451 137 137 137 137 137 180 180 464 464 464 523 523 296
 17 17 17 17 17 144 325 325 325 325 474 474 474 451 451 451 451 137 137 137
 137 137 460 460 460 464 464 523 296 296 17 17 17 17 144 111 144 325 325 325
 113 113 321 451 451 428 451 509 137 137 446 446 460 460 460 460 464 523 296 17
 17 17 17 17 111 111 111 144 10 10 10 10 321 321 321 20 509 509 509 446
 446 446 460 460 460 295 136 62 17 17 169 169 169 17 111 111 111 111 10 10
 10 10 321 321 20 20 20 509 509 509 115 115 176 176 176 136 136 62 62 169
 169 169 169 17 111 111 188 188 438 438 438 438 321 321 20 20 20 509 509 509
 115 115 176 176 176 136 136 62 62 62 463 463 463 463 188 188 188 188 438 438
 438 438 321 321 20 20 109 109 109 109 115 115 378 378 378 136 62 62 62 62
 200 463 463 333 188 188 188 188 224 224 224 224 224 467 20 109 109 109 109 109
 378 378 378 378 378 250 250 62 200 200 200 463 333 333 188 188 476 476 224 224