# vtk DataFile Version 2.0
Data set from IO Version 6.4.197.9a0dee2
ASCII

DATASET RECTILINEAR_GRID
DIMENSIONS 31 31 31
X_COORDINATES 31 float
-1.116667 1.116667 3.350000 5.583333 7.816666 10.049999 12.283332 14.516665 16.749998 18.983332 21.216665 23.449997 25.683331 27.916664 30.149996 32.383331 34.616665 36.849998 39.083332 41.316666 43.549999 
45.783329 48.016663 50.249996 52.483330 54.716663 56.949997 59.183331 61.416660 63.649998 65.883324 
Y_COORDINATES 31 float
-1.116667 1.116667 3.350000 5.583333 7.816666 10.049999 12.283332 14.516665 16.749998 18.983332 21.216665 23.449997 25.683331 27.916664 30.149996 32.383331 34.616665 36.849998 39.083332 41.316666 43.549999 
45.783329 48.016663 50.249996 52.483330 54.716663 56.949997 59.183331 61.416660 63.649998 65.883324 
Z_COORDINATES 31 float
-1.116667 1.116667 3.350000 5.583333 7.816666 10.049999 12.283332 14.516665 16.749998 18.983332 21.216665 23.449997 25.683331 27.916664 30.149996 32.383331 34.616665 36.849998 39.083332 41.316666 43.549999 
45.783329 48.016663 50.249996 52.483330 54.716663 56.949997 59.183331 61.416660 63.649998 65.883324 
CELL_DATA 27000
SCALARS FeatureIds int 1
LOOKUP_TABLE default
 421 135 486 486 40 195 195 195 170 170 170 170 171 304 304 304 304 31 31 31
 347 434 434 254 254 254 254 98 98 421 135 135 486 40 40 40 195 174 174 170
 18 18 171 171 234 304 31 31 31 31 434 434 434 277 254 254 254 254 135 135
 467 467 406 40 40 40 174 174 174 18 18 18 171 171 234 234 31 31 31 31
 434 434 434 277 254 254 254 254 135 135 406 406 406 40 40 40 174 174 174 18
 18 18 18 234 234 234 31 31 31 521 434 434 434 277 254 254 254 254 135 135
 406 406 406 406 40 40 174 174 174 18 18 18 18 234 234 234 31 31 521 521
 521 521 521 336 336 336 254 254 135 135 406 406 523 523 523 523 361 361 361 361
 242 242 242 234 234 353 353 521 521 521 521 521 521 336 336 336 336 35 35 35
 407 407 523 523 523 473 444 444 211 211 242 242 242 242 353 353 353 353 521 521
 521 521 204 204 204 204 204 35 35 35 407 407 523 523 523 473 473 12 211 211
 242 242 242 353 353 353 353 419 419 521 521 204 204 204 204 204 204 35 35 407
 407 407 407 523 523 473 12 12 12 211 242 242 242 328 328 328 419 419 419 530
 530 204 204 204 204 204 71 407 407 407 407 407 407 407 407 12 12 12 12 477
 262 262 262 63 328 328 419 419 419 530 530 489 489 204 204 71 71 423 423 407
 407 407 407 407 407 12 12 12 12 477 477 262 63 63 63 328 419 419 419 530
 530 489 489 489 489 71 423 423 423 407 407 407 407 407 407 12 12 12 477 477
 477 477 63 63 63 328 419 419 419 530 489 489 489 489 489 423 423 423 423 407
 407 407 407 407 77 77 12 12 477 477 477 477 63 63 63 306 280 280 280 359
 359 359 359 489 489 423 423 423 423 407 240 240 77 77 77 77 77 12 477 477
 477 306 306 306 306 306 280 280 280 280 359 359 359 359 52 423 423 487 487 487
 240 77 77 77 77 77 77 149 14 14 14 306 306 306 306 306 280 280 280 280
 359 359 359 359 52 52 423 487 487 487 27 77 77 77 77 77 149 149 149 14
 14 306 306 306 306 306 280 280 280 280 359 359 359 359 52 52 529 529 529 529
 27 27 77 77 77 149 149 149 149 178 178 80 80 80 306 306 280 280 280 280
 524 524 524 64 64 64 529 529 529 529 27 27 27 77 77 149 149 149 149 178
 178 178 80 80 80 80 80 280 280 524 524 524 524 64 64 64 64 529 529 529
 27 27 27 27 149 149 149 149 178 178 178 178 80 80 80 80 80 524 524 524
 524 524 524 64 64 64 64 529 115 115 115 27 27 27 113 113 113 149 178 178
 178 178 80 363 363 363 363 122 524 524 524 524 503 64 64 64 64 64 115 115
 115 321 321 321 113 113 113 149 369 369 369 369 369 363 363 363 363 122 122 428
 503 503 503 503 482 482 482 482 115 115 321 321 321 321 95 95 95 95 369 369
 369 369 369 363 363 363 122 122 122 428 428 503 503 482 482 482 482 482 115 115
 321 321 321 321 95 294 95 95 369 369 369 369 393 363 363 363 122 122 428 428
 428 265 265 354 482 482 482 482 482 115 321 321 321 294 294 294 294 397 187 187
 187 393 393 363 363 363 122 122 127 428 265 265 265 354 482 482 482 482 482 42
 42 42 273 294 294 294 397 397 223 223 223 393 393 393 363 363 21 21 127 265
 265 265 265 68 68 68 482 482 42 42 42 273 273 294 294 397 397 397 223 223
 223 393 393 393 393 21 21 21 265 265 265 265 68 68 68 68 422 422 42 42
 421 273 273 195 195 195 397 397 223 223 223 393 393 184 304 304 304 304 265 265
 265 265 68 68 68 422 422 422 98 421 421 421 486 195 195 195 195 195 170 170
 170 170 184 184 304 304 304 304 194 443 443 265 68 422 422 422 422 98 98 421
 421 421 486 486 195 195 195 195 170 170 170 170 184 184 304 304 304 194 194 194
 347 347 347 422 422 422 98 98 98 421 421 421 486 486 195 195 195 195 170 170
 170 170 184 184 304 304 304 194 194 194 347 347 347 254 254 254 98 98 98 421
 135 135 135 190 195 195 195 195 170 267 267 267 171 237 304 304 304 31 31 31
 347 434 434 277 254 254 254 254 135 135 135 135 190 190 190 195 195 174 174 174
 18 171 171 171 171 304 31 31 31 31 434 434 434 277 254 254 254 254 135 135
 135 135 190 190 190 40 174 174 174 174 18 171 171 171 171 171 31 31 31 31
 434 434 434 277 254 254 254 254 135 135 135 135 190 190 190 40 174 174 174 174
 18 171 171 171 171 171 31 31 31 31 434 434 434 277 254 254 254 254 135 135
 135 406 406 190 523 40 174 174 361 361 18 18 171 171 171 171 31 31 521 521
 521 521 521 336 336 336 254 254 135 135 407 523 523 523 523 523 361 361 361 361
 242 242 242 171 353 353 353 521 521 521 521 521 336 336 336 336 336 35 35 35
 407 407 523 523 523 473 361 361 361 242 242 242 242 353 353 353 353 353 521 521
 521 521 204 336 336 336 336 35 35 35 407 407 523 523 523 473 473 12 12 242
 242 242 242 353 353 353 353 353 521 521 521 521 204 204 204 204 35 35 35 35
 407 407 407 523 523 473 12 12 12 12 242 242 242 328 328 328 328 419 530 530
 530 204 204 204 204 71 71 35 35 407 407 407 407 407 523 12 12 12 12 12
 262 262 262 63 328 328 328 419 530 530 530 489 259 259 259 71 71 423 382 407
 407 407 407 407 407 12 12 12 12 12 262 262 63 63 63 328 328 419 530 530
 530 489 489 489 259 71 423 423 423 407 407 407 407 407 407 12 12 12 12 477
 477 63 63 63 63 328 328 419 530 530 530 489 489 489 52 423 423 423 423 407
 407 240 407 407 77 77 12 12 12 477 477 63 63 63 63 63 280 280 280 359
 359 359 489 52 52 52 423 423 423 407 240 240 240 77 77 77 77 480 14 14
 14 63 63 306 306 306 280 280 280 280 359 359 359 52 52 52 423 487 487 487
 240 77 77 77 77 77 77 77 14 14 14 449 449 306 306 306 280 280 280 280
 359 359 52 52 52 52 52 529 529 529 529 77 77 77 77 77 77 149 14 14
 14 449 449 449 306 306 280 280 280 280 359 359 52 52 52 52 529 529 529 529
 27 27 77 77 77 77 149 149 149 178 178 178 80 80 80 80 280 280 280 280
 524 524 524 52 52 52 529 529 529 529 27 27 27 77 77 77 149 149 178 178
 178 178 80 80 80 80 80 338 338 524 524 524 524 64 64 64 529 529 529 529
 27 27 27 27 113 113 113 149 178 178 178 178 80 80 80 80 80 338 338 338
 524 524 503 64 64 64 6 529 115 115 115 27 27 27 113 113 113 149 178 178
 178 178 80 80 363 363 363 338 338 338 503 503 503 503 64 482 6 6 115 115
 115 321 321 321 113 113 113 113 178 178 178 178 260 363 363 363 122 122 122 503
 503 503 503 503 482 482 482 482 115 115 321 321 321 321 113 95 95 95 251 251
 369 369 260 260 363 363 122 122 122 428 503 503 503 482 482 482 482 482 115 321
 321 321 321 321 294 294 294 95 251 251 251 393 393 260 363 363 122 122 122 428
 265 265 265 354 482 482 482 482 482 321 42 321 321 294 294 294 294 397 251 251
 251 393 393 393 363 363 122 122 127 265 265 265 265 354 354 482 482 482 42 42
 42 42 273 294 294 294 397 397 223 223 393 393 393 393 393 21 21 21 21 265
 265 265 265 354 68 482 482 42 42 42 42 273 273 273 294 397 397 397 223 223
 223 393 393 393 393 21 21 21 21 265 265 265 265 68 68 422 422 422 42 42
 273 273 273 273 195 397 397 397 223 223 223 393 393 393 304 304 21 21 21 265
 265 265 68 68 422 422 422 422 42 42 421 273 273 195 195 195 195 195 223 223
 267 267 267 184 304 304 304 304 194 443 443 265 68 422 422 422 422 422 421 421
 421 135 486 195 195 195 195 195 195 267 267 267 267 237 304 304 304 194 194 194
 347 347 347 422 422 422 422 98 421 421 421 135 486 195 195 195 195 195 195 267
 267 267 237 237 304 304 304 194 194 194 347 347 347 254 254 254 254 98 421 421
 135 135 190 190 190 195 195 195 195 267 267 267 171 304 304 304 304 31 31 31
 347 434 434 254 254 254 254 135 135 135 135 135 190 190 190 195 195 195 174 267
 276 171 171 171 171 304 31 31 31 31 434 434 434 277 254 254 254 254 135 135
 135 135 190 190 190 190 174 174 174 174 276 171 171 171 171 171 230 230 31 31
 434 434 434 277 254 254 254 254 135 135 135 135 190 190 190 190 174 174 174 174
 276 171 171 171 171 171 230 230 31 395 434 434 434 277 254 254 254 254 135 135
 135 135 190 190 333 333 361 361 361 361 18 171 171 171 171 171 230 230 395 395
 395 521 336 336 336 336 254 35 135 135 135 523 523 523 333 333 361 361 361 361
 242 242 242 171 171 353 353 395 395 395 395 521 336 336 336 336 336 35 35 35
 407 407 523 523 523 333 361 361 361 361 242 242 242 353 353 353 353 353 395 395
 395 521 336 336 336 336 35 35 35 35 407 407 523 523 523 473 473 361 361 457
 242 242 242 353 353 353 353 353 395 521 521 259 259 259 259 259 35 35 35 35
 407 407 407 523 523 473 12 12 12 457 457 242 242 308 328 328 328 328 530 530
 530 259 259 259 259 259 71 35 35 407 407 407 407 407 407 12 12 12 457 457
 457 262 308 308 328 328 328 328 530 530 530 259 259 259 259 259 71 382 382 382
 407 407 407 407 407 12 12 12 457 457 457 262 63 63 63 328 328 328 530 530
 530 259 259 259 259 259 423 382 382 382 407 407 407 407 407 12 12 12 12 457
 457 63 63 63 63 63 328 243 530 530 530 259 259 259 52 52 52 382 382 382
 407 240 407 407 77 77 480 480 480 14 14 63 63 63 63 63 243 243 243 243
 359 359 52 52 52 52 52 423 382 382 240 240 77 77 77 77 480 480 480 14
 14 14 449 449 449 449 243 243 243 243 359 359 52 52 52 52 52 52 529 529
 240 77 77 77 77 77 480 480 14 14 14 14 449 449 449 449 243 243 243 280
 359 359 52 52 52 52 52 529 529 529 529 77 77 77 77 77 77 480 14 14
 14 449 449 449 449 449 243 280 280 280 359 359 52 52 52 52 52 529 529 529
 27 27 77 77 77 77 77 149 178 178 178 449 449 449 449 449 449 338 338 338
 93 93 93 52 52 52 529 529 529 529 27 27 27 77 77 77 77 149 178 178
 178 178 80 80 80 80 338 338 338 338 93 93 93 64 6 6 6 529 529 529
 27 27 27 77 77 113 113 149 178 178 178 178 80 80 80 80 338 338 338 338
 338 503 503 503 6 6 6 6 529 115 115 27 27 77 113 113 113 113 178 178
 178 178 260 260 260 363 338 338 338 338 503 503 503 503 6 6 6 6 115 115
 115 321 321 321 113 113 113 113 178 178 178 260 260 260 260 260 122 122 338 338
 503 503 503 503 482 6 6 482 115 115 321 321 321 321 113 113 113 251 251 251
 251 260 260 260 260 260 122 122 122 503 503 503 503 482 482 482 482 482 115 321
 321 321 321 321 294 294 294 294 251 251 251 393 393 260 260 260 122 122 122 265
 265 265 265 388 482 482 482 482 482 42 42 42 321 294 294 294 294 397 251 251
 251 393 393 393 393 393 122 122 122 265 265 265 265 388 388 482 482 482 42 42
 42 42 42 294 294 397 397 397 223 223 393 393 393 393 393 21 21 21 21 265
 265 265 265 388 388 482 482 42 42 42 42 273 273 273 294 397 397 397 223 223
 393 393 393 393 393 21 21 21 21 265 265 265 265 265 422 422 422 42 42 42
 273 273 273 352 352 397 397 397 223 223 223 393 393 393 304 21 21 21 21 265
 265 265 265 68 422 422 422 422 42 42 273 273 273 352 195 195 195 195 223 267
 267 267 267 304 304 304 304 21 194 265 265 265 347 422 422 422 422 422 421 421
 135 135 352 352 195 195 195 195 195 267 267 267 267 304 304 304 304 194 194 194
 347 347 347 422 422 422 422 135 135 135 135 135 190 190 195 195 195 195 195 267
 267 267 267 237 304 304 304 194 194 194 347 347 347 254 254 254 254 135 135 135
 135 135 190 190 190 190 195 195 195 267 267 267 267 304 304 304 230 230 230 31
 347 434 434 254 254 254 254 135 135 135 135 135 190 190 190 190 195 195 287 287
 276 276 171 171 171 230 230 230 230 31 434 434 434 277 254 254 254 135 135 135
 135 135 190 190 190 190 195 174 174 276 276 276 171 171 171 171 230 230 230 230
 434 434 434 277 254 254 254 254 135 135 135 135 190 190 190 190 190 361 361 276
 276 276 171 171 171 171 230 230 230 230 395 434 434 277 254 254 254 135 135 135
 135 135 190 190 333 333 333 361 361 361 276 276 171 171 171 171 230 230 395 395
 395 395 336 336 336 69 254 135 135 135 78 523 523 523 333 333 333 361 361 361
 242 242 171 171 171 171 353 395 395 395 395 123 123 69 69 69 69 35 35 35
 407 407 523 523 333 333 333 361 361 361 242 242 242 353 353 353 353 395 395 395
 395 123 123 69 69 69 69 35 35 35 407 407 407 523 333 333 333 361 361 457
 242 242 242 353 353 353 353 58 395 395 395 259 259 259 69 69 69 35 35 35
 407 407 407 523 523 473 12 457 457 457 457 242 308 308 308 328 58 58 58 58
 259 259 259 259 259 69 69 382 382 382 382 407 407 407 407 12 12 457 457 457
 457 457 308 308 308 328 58 58 58 58 530 259 259 259 259 259 69 382 382 382
 382 407 407 407 407 12 12 457 457 457 457 457 308 308 308 328 58 58 58 58
 530 259 259 259 259 259 259 382 382 382 382 407 407 407 407 12 12 480 457 457
 457 457 63 63 63 99 99 99 58 58 530 259 259 259 259 52 52 382 382 382
 382 240 407 77 77 476 476 480 480 14 448 448 448 63 63 99 99 243 243 243
 359 52 52 52 52 52 52 459 382 382 240 240 77 77 77 480 480 476 480 14
 14 448 449 449 449 99 243 243 243 243 59 52 52 52 52 52 52 52 529 529
 77 77 77 77 77 77 480 480 476 14 14 449 449 449 449 449 243 243 243 243
 59 52 52 52 52 52 404 404 529 529 529 77 77 77 77 77 77 480 476 14
 14 449 449 449 449 449 243 243 243 243 93 52 52 52 52 404 404 404 529 529
 27 77 77 77 77 77 77 480 178 14 14 449 449 449 449 449 449 338 338 93
 93 93 93 404 404 404 404 529 529 529 27 27 77 77 77 77 77 149 178 178
 178 449 449 449 449 449 449 338 338 338 93 93 93 93 6 6 6 6 529 529
 27 27 27 77 77 113 113 149 178 178 178 178 80 80 80 449 256 338 338 338
 338 93 93 6 6 6 6 6 529 27 27 27 27 77 113 113 113 113 178 178
 441 441 260 260 260 260 256 338 338 338 338 503 503 6 6 6 6 6 115 115
 115 321 321 321 113 113 113 113 51 178 441 260 260 260 260 260 256 338 338 338
 503 503 503 6 6 6 6 6 115 115 321 321 321 321 113 113 113 251 251 251
 251 260 260 260 260 260 122 122 338 338 503 503 503 6 6 482 482 482 295 295
 321 321 321 309 294 294 294 251 251 251 251 393 260 260 260 260 122 122 122 338
 265 265 388 388 388 482 482 482 42 42 42 42 309 309 294 294 294 397 251 251
 393 393 393 393 260 260 21 21 21 265 265 265 388 388 388 388 482 42 42 42
 42 42 42 309 294 397 397 397 223 393 393 393 393 393 393 21 21 21 21 265
 265 265 388 388 388 388 42 42 42 42 42 273 273 273 352 397 397 397 223 393
 393 393 393 393 393 21 21 21 21 265 265 265 265 388 388 422 42 42 42 42
 273 273 273 352 352 352 397 397 223 393 393 393 393 393 393 21 21 21 21 265
 265 265 265 388 422 422 422 42 42 42 273 273 352 352 352 195 195 195 267 267
 267 267 267 393 304 304 304 21 21 265 265 265 347 422 422 422 422 422 42 42
 135 135 352 352 195 195 195 195 195 267 267 267 267 304 304 304 304 194 194 194
 347 347 347 422 422 422 422 135 135 135 135 135 190 190 190 195 195 195 195 267
 267 267 267 304 304 304 304 194 194 194 347 347 347 254 254 254 254 135 135 135
 135 232 190 190 190 190 195 287 287 287 267 267 267 171 304 304 230 230 416 416
 416 416 416 137 254 254 254 135 135 135 135 135 190 190 190 190 287 287 287 287
 287 180 180 171 171 230 230 230 230 416 416 416 416 239 239 239 239 135 135 135
 135 135 190 190 190 190 190 287 287 287 276 276 171 171 171 171 230 230 230 416
 416 416 239 239 239 239 239 239 135 135 135 135 190 190 190 190 333 287 287 287
 276 276 171 171 171 171 230 230 230 416 416 416 239 239 239 239 239 239 135 135
 78 78 190 190 333 333 333 361 361 361 276 276 171 171 171 171 230 230 395 395
 395 123 123 123 239 239 239 69 78 78 78 78 78 333 333 333 333 361 361 361
 361 242 171 171 171 171 411 411 395 395 395 123 123 123 69 69 69 69 78 78
 78 78 523 523 333 333 333 361 361 361 255 242 242 303 303 303 411 411 411 411
 123 123 123 123 69 69 69 69 78 78 407 407 407 523 333 333 333 361 255 255
 255 242 242 308 308 58 58 58 411 411 123 123 123 430 69 69 69 69 69 78
 407 407 504 504 523 333 333 457 457 457 457 457 308 308 308 58 58 58 58 58
 123 259 259 259 69 69 69 69 382 382 382 407 504 504 504 283 457 457 457 457
 457 457 308 308 308 58 58 58 58 58 58 259 259 259 259 69 69 382 382 382
 382 407 407 407 407 283 457 457 457 457 457 457 308 308 308 99 58 58 58 58
 58 485 485 259 259 259 69 382 382 382 382 407 407 407 407 476 476 457 457 457
 448 448 448 63 99 99 99 99 58 58 485 485 485 485 259 259 459 382 382 382
 382 162 162 77 476 476 476 480 480 448 448 448 448 448 99 99 99 99 99 99
 485 485 485 52 52 52 459 459 382 382 162 162 162 77 77 480 480 480 480 448
 448 448 448 449 449 99 99 243 243 243 59 59 52 52 52 404 459 459 459 382
 162 77 77 77 77 77 480 480 480 448 448 448 449 449 449 449 99 243 243 59
 59 59 52 52 404 404 404 404 404 529 529 77 77 77 77 77 480 480 91 14
 448 449 449 449 449 449 99 243 243 59 59 59 59 404 404 404 404 404 404 529
 27 77 77 77 77 77 91 91 91 14 448 449 449 449 449 449 449 256 338 59
 59 93 59 404 404 404 404 404 529 529 27 27 77 77 77 77 77 91 91 441
 441 449 449 449 449 449 256 256 338 338 93 93 93 404 404 404 6 404 529 529
 27 27 27 77 77 113 113 441 441 441 441 441 441 449 449 256 256 256 338 338
 338 93 93 6 6 6 6 6 529 27 155 27 27 77 113 525 113 441 441 441
 441 441 441 260 260 256 256 256 338 338 338 141 503 6 6 6 6 6 115 115
 155 526 321 309 525 525 525 51 51 51 441 441 260 260 260 260 256 256 256 338
 338 141 141 6 6 6 6 6 295 295 526 526 309 309 309 525 525 51 51 51
 51 260 260 260 260 260 256 256 256 338 141 141 141 6 6 6 6 295 295 295
 526 526 309 309 309 309 210 51 51 51 51 393 260 260 260 260 260 256 256 338
 141 141 388 388 388 482 295 295 295 295 42 526 309 309 309 309 198 198 251 393
 393 393 393 458 458 260 21 21 21 340 265 265 388 388 388 388 295 295 295 295
 42 42 309 309 309 309 198 198 198 393 393 393 393 393 393 21 21 21 21 265
 265 265 388 388 388 388 295 295 42 42 42 273 273 309 309 198 198 198 198 198
 393 393 393 393 245 21 21 21 21 265 265 265 265 388 388 358 358 42 42 42
 273 273 352 352 352 198 198 198 198 198 393 393 245 245 245 107 107 107 107 107
 265 265 265 388 358 358 358 42 42 42 273 232 352 352 352 195 195 198 198 267
 267 267 245 245 245 107 107 107 107 107 416 137 137 358 358 358 358 358 42 42
 232 232 232 352 352 195 195 195 267 267 267 267 267 245 245 304 304 107 416 416
 416 137 137 137 358 358 358 135 135 135 232 232 232 190 190 190 195 287 287 267
 267 267 267 304 304 304 304 194 416 416 416 137 137 137 358 358 358 135 135 135
 232 232 232 190 190 190 287 287 287 287 287 180 325 325 325 266 266 266 416 416
 416 416 137 137 137 239 239 135 135 135 132 132 190 190 190 190 287 287 287 287
 287 180 180 325 325 230 230 416 416 416 416 416 416 239 239 239 239 239 172 172
 132 132 190 190 190 190 287 287 287 287 287 180 325 325 171 171 230 230 416 416
 416 416 416 239 239 239 239 239 172 172 78 78 190 190 190 190 318 287 287 287
 325 325 325 325 171 171 230 230 416 416 416 416 239 239 239 239 239 239 78 78
 78 78 190 190 333 333 318 318 318 318 325 325 325 171 171 171 411 411 411 411
 123 123 123 239 239 239 239 239 78 78 78 78 78 333 333 333 333 318 318 318
 255 255 325 303 303 303 411 411 411 411 123 123 123 123 69 69 69 69 78 78
 78 78 78 333 333 333 333 318 318 255 255 255 255 303 303 303 303 411 411 411
 123 123 123 123 69 69 69 69 78 78 78 78 504 504 333 333 333 318 255 255
 255 255 242 303 303 303 58 58 411 411 123 123 123 430 69 69 69 69 69 78
 407 407 504 504 504 283 283 255 255 255 255 457 308 308 303 58 58 58 58 58
 123 123 485 430 69 69 69 69 69 382 382 407 504 504 283 283 283 283 457 457
 457 457 308 308 308 58 58 58 58 58 58 485 485 485 69 69 69 382 382 382
 382 527 527 527 283 283 283 283 457 457 457 448 308 308 99 99 58 58 58 58
 58 485 485 485 485 259 69 382 382 382 382 382 527 527 283 283 283 283 457 457
 448 448 448 448 99 99 99 99 58 58 485 485 485 485 485 485 459 382 382 382
 162 162 162 162 162 476 476 480 480 448 448 448 448 448 99 99 99 99 99 99
 59 485 485 485 485 404 459 459 382 382 162 162 162 162 341 341 341 480 480 448
 448 448 448 448 99 99 99 99 99 59 59 59 59 404 404 404 459 459 459 162
 162 162 162 162 341 341 341 91 91 448 448 448 448 449 449 99 99 99 99 59
 59 59 59 404 404 404 404 404 404 162 162 162 162 77 77 91 91 91 91 91
 448 448 449 449 449 449 99 330 330 59 59 59 59 404 404 404 404 404 404 404
 162 77 77 77 77 91 91 91 91 91 448 449 449 449 449 449 330 330 330 59
 59 59 59 404 404 404 404 404 404 404 155 155 77 77 77 91 91 91 91 441
 441 441 449 449 449 256 256 256 330 59 59 59 59 404 404 404 404 404 404 155
 155 155 155 77 77 525 91 91 441 441 441 441 441 441 256 256 256 256 256 338
 338 59 59 6 6 6 6 6 155 155 155 155 155 525 525 525 525 441 441 441
 441 441 441 441 260 256 256 256 256 256 141 141 141 6 6 6 6 6 155 155
 155 526 526 525 525 525 525 51 51 51 441 441 441 260 260 256 256 256 256 256
 141 141 141 6 6 6 6 295 295 155 526 526 526 309 525 525 525 51 51 51
 51 441 260 260 260 260 256 256 256 141 141 141 141 141 6 6 295 295 295 295
 526 526 309 309 309 525 210 210 51 51 51 393 458 458 458 260 256 256 256 141
 141 141 148 148 388 295 295 295 295 295 526 526 309 309 309 525 210 210 51 51
 393 393 458 458 458 458 107 340 340 340 141 141 148 388 388 295 295 295 295 295
 526 526 309 309 309 309 198 198 198 198 393 393 393 458 458 458 107 107 107 340
 340 265 388 388 388 295 295 295 295 295 42 526 309 309 309 252 198 198 198 198
 393 245 245 245 245 107 107 107 107 107 340 265 388 388 358 358 358 380 295 295
 390 232 352 352 252 252 198 198 198 198 198 245 245 245 245 107 107 107 107 107
 465 465 358 358 358 358 358 380 295 42 232 232 232 252 252 252 252 198 198 198
 245 245 245 245 245 107 107 107 107 107 416 137 137 358 358 358 358 358 390 390
 232 232 232 232 252 252 252 198 198 267 325 245 245 245 245 107 266 266 416 416
 416 137 137 137 358 358 358 358 135 232 232 232 232 232 190 190 287 287 287 287
 325 325 325 325 245 266 266 266 416 416 416 137 137 137 358 358 358 358 135 232
 132 132 132 132 190 215 119 287 287 287 325 325 325 325 325 266 266 266 416 416
 416 416 137 137 137 239 239 172 172 172 132 132 132 132 119 215 119 287 287 287
 325 325 325 325 325 325 212 416 416 416 416 416 416 239 239 239 239 172 172 172
 132 132 132 132 119 215 119 287 287 287 325 325 325 325 325 212 212 416 416 416
 416 416 416 239 239 239 239 172 172 172 78 132 132 190 190 318 318 318 287 287
 325 325 325 325 325 212 212 416 416 416 416 416 239 239 239 239 239 239 78 78
 78 78 132 190 318 318 318 318 318 318 325 325 325 325 303 303 411 411 411 411
 411 123 123 239 239 239 239 78 78 78 78 78 78 333 333 318 318 318 318 318
 325 325 325 303 303 303 303 411 411 411 411 123 123 123 69 69 69 78 78 78
 78 78 78 520 333 318 318 318 318 516 516 516 325 303 303 303 303 411 411 411
 411 123 123 123 69 69 69 69 78 78 78 78 78 504 520 318 318 318 516 516
 516 516 153 303 303 303 303 411 411 411 411 123 123 430 69 69 69 69 78 78
 78 78 504 504 283 283 283 283 516 516 516 516 153 303 303 303 58 58 58 411
 73 73 485 485 69 69 69 69 78 78 382 527 527 527 283 283 283 283 452 452
 452 452 153 308 303 58 58 58 58 58 73 73 485 485 485 69 69 69 382 382
 222 527 527 527 283 283 283 283 283 452 448 448 448 308 99 99 58 58 58 58
 73 485 485 485 485 69 69 382 382 382 222 222 222 527 283 283 283 283 283 448
 448 448 448 448 99 99 99 99 58 58 485 485 485 485 485 485 13 13 382 382
 162 162 162 162 162 283 283 283 391 391 448 448 448 448 99 99 99 99 99 59
 59 59 485 485 485 404 13 13 13 162 162 162 162 162 341 341 341 341 391 391
 448 448 448 448 99 99 99 99 99 59 59 59 59 59 404 404 13 13 13 162
 162 162 162 162 341 341 341 91 91 91 448 448 448 448 99 99 99 99 99 59
 59 59 59 59 404 404 404 13 13 162 162 162 162 162 341 341 341 91 91 91
 448 448 448 449 449 449 330 330 330 59 59 59 59 59 404 404 404 404 404 162
 162 162 162 162 341 341 341 91 91 91 448 448 449 449 449 330 330 330 330 59
 59 59 59 59 404 404 404 404 404 155 155 155 155 213 341 341 341 91 91 91
 441 441 441 449 449 330 330 330 330 59 59 59 59 59 404 404 404 404 155 155
 155 155 155 155 525 525 525 91 91 441 441 441 441 441 150 256 256 256 256 59
 59 59 59 59 377 377 377 404 155 155 155 155 155 525 525 525 525 525 51 441
 441 441 441 441 441 256 256 256 256 256 59 141 59 6 377 377 377 310 155 155
 155 155 155 525 525 525 525 210 51 51 441 441 441 441 260 256 256 256 256 256
 141 141 141 6 377 377 310 310 155 155 366 366 366 525 525 525 525 210 51 51
 51 441 260 260 260 173 256 256 256 141 141 141 141 141 377 310 310 295 295 295
 526 526 526 309 525 525 210 210 210 51 51 51 458 458 458 173 173 256 340 340
 141 148 148 148 148 295 295 295 295 295 526 526 526 309 309 210 210 210 210 51
 393 393 458 458 458 458 107 340 340 340 340 148 148 148 494 494 295 295 295 295
 526 526 309 309 309 210 198 198 198 198 198 245 245 458 458 107 107 107 340 340
 340 148 148 494 494 494 380 380 295 295 470 470 470 309 252 252 198 198 198 198
 198 245 245 245 245 107 107 107 107 107 340 148 358 358 358 494 380 380 380 380
 390 390 470 252 252 252 252 198 198 198 198 245 245 245 245 107 107 107 107 465
 465 465 358 358 358 358 358 380 380 390 390 390 390 252 252 252 252 198 198 198
 325 245 245 245 245 107 107 107 107 465 465 137 137 358 358 358 358 358 390 390
 232 232 232 232 252 252 252 198 198 325 325 325 325 245 245 107 266 266 266 465
 416 137 137 137 358 358 358 358 390 390 232 232 232 232 252 252 252 287 287 287
 325 325 325 325 245 266 266 266 416 416 416 137 137 137 358 358 358 358 172 172
 132 132 132 49 49 215 119 287 287 287 325 325 325 325 325 325 266 266 416 416
 416 416 137 137 137 239 239 172 172 172 132 132 132 513 119 119 119 287 287 287
 325 325 325 325 325 212 212 212 416 416 416 416 416 175 239 239 239 172 172 172
 132 132 132 513 119 215 193 193 287 287 325 325 325 325 325 212 212 212 416 416
 416 416 416 239 239 239 239 172 172 172 132 132 513 513 513 193 193 193 193 325
 325 325 325 325 325 212 212 212 416 416 416 416 25 239 239 239 239 172 172 172
 78 78 513 513 520 318 318 318 318 318 325 325 325 325 303 212 212 411 411 411
 411 123 123 239 239 239 239 78 78 78 78 78 78 520 520 318 318 318 318 318
 318 325 325 303 303 303 303 411 411 411 411 123 123 123 69 69 69 78 78 78
 78 78 78 520 520 520 318 318 318 516 516 516 153 303 303 303 303 411 411 411
 411 123 123 418 69 69 69 386 78 78 78 78 78 520 520 520 318 318 516 516
 516 516 153 153 303 303 303 411 411 411 411 123 418 418 69 69 69 386 386 78
 78 527 527 527 520 520 283 283 516 516 452 452 153 153 47 303 58 58 58 411
 73 73 73 418 69 69 69 69 386 78 527 527 527 527 527 283 283 283 452 452
 452 452 153 153 153 58 58 58 58 58 73 73 73 485 130 130 130 130 386 382
 222 527 527 527 527 283 283 283 452 452 452 452 153 153 153 99 58 58 58 58
 73 73 485 485 130 130 130 130 130 382 222 222 222 527 283 283 283 283 76 452
 76 448 448 448 99 99 99 99 58 334 73 485 485 485 485 130 13 13 13 162
 162 162 162 162 162 283 283 76 76 391 76 448 448 448 99 99 99 99 389 59
 59 59 59 485 404 13 13 13 13 162 162 162 162 162 341 341 341 341 391 391
 391 448 448 448 99 99 99 389 389 59 59 59 59 59 404 404 13 13 13 162
 162 162 162 162 341 341 341 341 91 391 76 448 448 448 99 99 99 389 389 59
 59 59 59 59 404 404 13 13 13 162 162 162 162 162 341 341 341 91 91 91
 76 448 448 448 99 99 99 330 330 59 59 59 59 59 404 404 404 13 13 162
 162 162 162 341 341 341 341 91 91 91 91 448 449 150 150 330 330 330 330 59
 59 59 59 59 404 404 404 404 404 155 155 155 213 213 341 341 341 91 91 91
 91 441 441 150 150 150 330 330 330 59 59 59 59 59 404 404 404 404 155 155
 155 155 155 213 213 525 525 91 91 468 441 441 441 150 150 150 97 97 97 387
 59 59 59 59 377 377 377 377 155 155 155 155 155 213 525 525 525 525 210 441
 441 441 441 150 150 150 97 97 97 387 59 59 59 377 377 377 377 310 505 155
 155 366 366 525 525 525 525 210 210 203 441 441 29 29 29 173 97 97 97 387
 141 141 141 377 377 377 310 310 310 155 366 366 366 366 525 525 525 210 210 203
 203 29 29 29 29 173 173 173 340 340 141 141 141 141 377 310 310 310 310 295
 366 366 366 309 525 525 210 210 210 210 51 29 29 29 29 173 173 173 340 340
 340 148 148 148 494 310 310 310 295 295 526 526 526 309 309 210 210 210 210 492
 492 492 458 29 458 173 173 340 340 340 340 148 148 494 494 494 494 295 295 295
 470 470 470 309 309 210 210 210 492 492 492 492 245 458 288 288 107 107 340 340
 340 340 494 494 494 494 494 380 380 295 470 470 470 470 252 252 252 198 492 492
 492 492 245 245 245 107 107 107 107 107 340 340 494 494 494 494 380 380 380 380
 390 470 470 252 252 252 252 492 492 492 492 492 245 245 245 107 107 107 107 465
 465 465 358 358 358 358 358 380 380 390 390 390 390 252 252 252 252 252 492 492
 492 245 245 245 245 107 107 107 465 465 465 465 137 358 358 358 358 358 390 390
 390 390 49 49 252 252 252 252 492 325 325 325 325 402 245 107 107 266 465 465
 465 137 137 358 358 358 358 358 390 390 390 132 49 49 49 252 252 287 287 325
 325 325 325 325 325 266 266 266 416 416 416 137 137 137 358 358 358 358 172 172
 132 132 513 49 49 49 119 287 287 325 325 325 325 325 325 212 212 416 416 416
 416 416 175 175 175 175 172 172 172 172 132 132 513 513 513 215 119 193 287 375
 325 325 325 325 325 212 212 212 416 416 416 416 175 175 175 239 172 172 172 172
 132 132 513 513 513 215 193 193 193 375 375 325 325 325 325 212 212 212 416 416
 416 416 175 175 175 239 239 172 172 172 132 513 513 513 513 193 193 193 193 375
 375 325 325 325 325 212 212 212 416 416 25 25 25 175 239 239 239 172 172 172
 78 451 451 520 520 318 318 318 318 318 325 325 325 325 325 212 212 212 411 411
 25 25 25 418 418 239 239 78 78 78 78 451 451 520 520 520 318 318 318 318
 318 325 325 325 303 47 47 411 411 411 411 418 418 418 418 418 386 78 78 78
 78 451 451 520 520 520 318 318 318 318 516 516 153 47 47 47 47 47 411 346
 346 418 418 418 418 418 386 386 386 78 78 78 520 520 520 520 520 318 318 516
 516 153 153 153 47 47 47 47 346 346 346 418 418 418 418 418 386 386 386 386
 471 471 471 520 520 520 520 318 452 452 452 153 153 153 47 47 47 528 346 346
 346 73 418 418 418 130 130 386 386 386 471 471 527 527 527 283 283 283 452 452
 452 452 153 153 153 47 47 528 334 334 73 73 73 418 130 130 130 130 386 351