# vtk DataFile Version 2.0
Data set from IO Version 6.4.197.9a0dee2
ASCII

DATASET RECTILINEAR_GRID
DIMENSIONS 31 31 31
X_COORDINATES 31 float
-1.116667 1.116667 3.350000 5.583333 7.816666 10.049999 12.283332 14.516665 16.749998 18.983332 21.216665 23.449997 25.683331 27.916664 30.149996 32.383331 34.616665 36.849998 39.083332 41.316666 43.549999 
45.783329 48.016663 50.249996 52.483330 54.716663 56.949997 59.183331 61.416660 63.649998 65.883324 
Y_COORDINATES 31 float
-1.116667 1.116667 3.350000 5.583333 7.816666 10.049999 12.283332 14.516665 16.749998 18.983332 21.216665 23.449997 25.683331 27.916664 30.149996 32.383331 34.616665 36.849998 39.083332 41.316666 43.549999 
45.783329 48.016663 50.249996 52.483330 54.716663 56.949997 59.183331 61.416660 63.649998 65.883324 
Z_COORDINATES 31 float
-1.116667 1.116667 3.350000 5.583333 7.816666 10.049999 12.283332 14.516665 16.749998 18.983332 21.216665 23.449997 25.683331 27.916664 30.149996 32.383331 34.616665 36.849998 39.083332 41.316666 43.549999 
45.783329 48.016663 50.249996 52.483330 54.716663 56.949997 59.183331 61.416660 63.649998 65.883324 
CELL_DATA 27000
SCALARS FeatureIds int 1
LOOKUP_TABLE default
 308 308 308 308 372 372 382 382 17 17 125 125 247 247 247 269 269 269 12 12
 12 116 116 109 116 119 259 259 259 259 308 308 308 236 372 372 372 17 17 17
 17 247 247 247 247 269 269 269 12 12 12 116 116 116 116 116 259 259 259 259
 308 308 308 236 236 372 372 372 17 17 17 247 247 247 247 269 269 429 429 429
 429 429 116 116 116 259 259 259 259 259 260 260 308 236 236 372 372 372 17 17
 17 247 113 113 113 269 269 429 429 429 429 429 234 234 234 259 259 259 259 260
 260 260 260 236 236 372 248 248 248 248 248 466 466 466 466 466 63 63 429 429
 429 429 234 234 234 234 259 259 260 260 260 260 487 487 487 487 248 248 248 248
 248 248 466 466 466 502 63 63 63 429 429 234 234 234 234 234 234 259 260 260
 131 131 487 487 487 487 248 248 248 248 248 218 218 218 502 502 502 374 29 29
 29 29 234 234 234 234 234 337 337 337 131 131 487 487 487 487 248 248 248 248
 248 218 218 218 502 502 502 29 29 29 29 462 234 234 234 234 337 337 337 131
 131 131 487 487 487 487 248 248 248 248 248 218 218 218 502 502 502 29 29 29
 462 462 462 8 8 8 345 345 345 345 345 345 487 487 487 487 55 55 55 55
 55 55 123 123 502 502 502 25 29 462 462 462 462 8 8 8 345 345 345 345
 345 345 92 92 370 370 55 55 55 55 55 55 60 123 25 25 25 25 29 462
 462 462 462 8 8 8 301 301 345 345 345 92 92 92 370 370 55 55 55 55
 55 60 60 123 25 25 25 410 410 462 462 462 462 8 8 301 301 301 301 345
 92 92 92 92 370 138 138 138 55 55 55 60 60 51 51 410 410 410 410 477
 448 448 448 448 172 172 172 301 301 345 207 207 207 207 402 138 138 138 138 138
 55 70 70 51 51 224 410 410 410 477 448 448 448 172 172 172 172 172 172 263
 207 207 207 207 402 402 138 138 138 138 70 70 70 51 224 224 224 410 410 477
 448 448 448 172 172 172 172 172 172 263 207 207 207 207 402 402 402 138 138 471
 70 70 70 70 224 224 224 226 226 26 26 26 26 172 172 172 172 172 172 71
 71 151 151 207 402 402 402 471 471 471 471 70 70 70 224 224 224 226 226 26
 26 26 26 26 172 172 172 172 71 71 71 151 151 151 402 402 402 471 471 471
 471 471 235 235 450 450 450 226 226 26 26 26 26 26 172 172 172 172 71 71
 71 151 151 461 344 344 344 471 471 471 471 235 235 235 83 83 83 83 373 373
 26 26 26 333 333 194 146 146 71 71 381 461 461 461 344 344 344 471 471 471
 471 235 235 83 83 83 83 83 373 373 373 26 26 333 333 146 146 146 146 381
 381 312 312 312 344 344 344 344 471 318 318 318 318 83 83 83 83 83 373 373
 373 38 476 476 476 146 146 146 381 381 381 312 312 312 312 344 344 197 318 318
 318 318 318 142 142 83 83 373 373 373 38 38 38 476 476 146 146 146 381 381
 381 312 312 312 312 312 197 197 197 318 318 318 318 142 142 142 286 286 286 373
 38 38 476 476 368 368 146 146 381 381 381 312 312 312 312 495 197 197 197 197
 318 318 318 142 142 142 286 286 286 286 34 34 34 368 368 368 262 262 262 262
 74 74 74 312 495 495 495 495 495 100 100 318 508 508 142 142 286 286 286 286
 34 34 34 447 447 170 262 262 262 262 74 74 74 74 495 495 495 495 495 100
 100 100 508 508 142 142 286 286 286 34 34 34 34 447 447 262 262 262 262 262
 74 74 74 74 495 495 495 495 495 100 100 100 400 400 400 300 300 300 300 34
 34 34 447 447 447 447 262 262 262 347 74 74 74 74 382 382 382 481 481 481
 481 125 400 400 400 400 300 300 300 59 59 59 109 109 109 119 119 347 347 347
 347 347 74 382 382 382 382 382 481 481 481 125 125 265 265 265 456 456 456 59
 59 59 109 109 109 119 119 347 347 347 347 347 347 382 382 382 382 382 481 481
 125 125 125 265 265 265 456 456 456 59 59 59 109 109 109 119 119 347 347 347
 308 308 308 308 372 372 372 17 17 17 17 247 247 247 247 247 456 456 12 12
 12 116 116 116 116 259 259 259 259 259 308 308 308 236 372 372 372 17 17 17
 17 247 247 247 247 247 325 325 12 12 12 116 116 116 116 259 259 259 259 259
 308 308 308 236 372 372 372 17 17 17 17 247 247 247 247 247 325 325 12 12
 12 116 116 116 116 259 259 259 259 259 308 308 308 236 372 372 372 17 17 17
 17 288 113 113 113 247 63 429 429 429 429 429 116 116 234 259 259 259 259 259
 260 260 260 487 372 372 372 248 248 248 288 288 466 466 466 466 63 63 374 429
 429 429 234 234 234 234 259 259 259 260 337 337 487 487 487 487 248 248 248 248
 248 288 466 466 466 466 63 63 63 29 29 234 234 234 234 234 234 337 337 337
 337 337 487 487 487 487 248 248 248 248 248 288 466 466 466 466 374 63 29 29
 29 29 234 234 234 234 234 337 337 337 337 131 487 487 487 487 248 248 248 248
 248 218 218 218 123 502 502 29 29 29 29 462 462 234 234 234 337 337 337 337
 337 131 487 487 487 487 487 248 248 248 500 123 123 123 123 123 123 29 29 29
 462 462 462 462 8 8 337 337 337 337 19 345 487 370 370 370 239 239 55 55
 55 123 123 123 123 123 123 29 29 29 462 462 462 462 8 8 301 345 19 19
 19 345 92 370 370 370 239 239 55 55 55 123 123 123 123 123 123 410 122 462
 462 462 462 462 8 301 301 301 19 19 345 92 92 370 370 370 239 239 239 55
 55 55 123 123 123 123 410 410 122 122 462 462 462 462 278 301 301 301 301 19
 92 92 92 370 370 23 23 23 239 55 55 55 51 51 51 51 410 410 410 122
 448 448 448 448 172 172 263 301 263 263 207 207 207 207 402 402 23 23 138 138
 70 70 51 51 51 224 410 410 410 410 448 448 448 448 172 172 172 263 263 263
 207 207 207 207 402 402 402 138 138 138 70 70 70 51 224 224 224 410 410 410
 448 448 448 172 172 172 172 263 263 263 207 207 207 207 402 402 402 402 471 471
 70 70 70 70 224 224 224 224 410 202 202 202 202 172 172 172 172 172 263 263
 461 461 461 461 402 402 402 471 471 471 471 70 70 70 224 224 224 224 226 202
 202 202 202 172 172 172 172 172 71 71 461 461 461 461 461 402 402 471 471 471
 471 471 70 70 450 450 450 226 373 373 202 202 202 202 172 172 172 172 71 71
 461 461 461 461 344 344 344 471 471 471 471 471 235 83 83 83 83 83 373 373
 202 202 202 333 194 194 194 146 146 71 461 461 461 461 344 344 344 344 471 471
 471 471 83 83 83 83 83 83 373 373 373 202 202 333 194 194 146 146 381 381
 381 312 312 312 344 344 344 344 318 318 318 318 318 83 83 83 83 373 373 373
 373 373 476 476 476 146 146 146 381 381 381 312 312 312 312 344 344 318 318 318
 318 318 318 142 142 142 142 373 373 373 373 38 476 476 476 146 146 146 381 381
 381 312 312 312 312 495 495 495 318 318 318 318 318 142 142 142 142 286 286 373
 38 38 476 476 476 368 146 262 381 381 74 74 312 312 312 495 495 495 495 318
 318 318 318 142 142 142 286 286 286 286 34 34 476 476 368 368 262 262 262 262
 74 74 74 74 495 495 495 495 495 100 100 100 508 142 142 142 286 286 286 286
 34 34 447 447 447 262 262 262 262 262 74 74 74 74 74 495 495 495 495 100
 100 100 508 508 142 142 286 286 286 34 34 34 447 447 447 262 262 262 262 262
 74 74 74 74 495 495 495 495 495 100 100 100 400 400 400 400 300 300 300 34
 34 34 447 447 447 262 262 262 262 262 74 74 74 74 382 382 382 495 481 481
 481 125 400 400 400 456 456 456 456 59 59 59 447 109 109 119 119 347 347 347
 347 74 74 382 382 382 382 382 481 481 481 125 400 400 400 456 456 456 456 59
 59 59 109 109 119 119 119 347 347 347 347 308 308 382 382 382 382 382 481 17
 17 125 270 270 270 456 456 456 456 12 59 59 116 109 119 119 259 259 347 347
 308 308 308 308 372 372 372 372 17 17 17 247 247 247 247 247 325 325 325 12
 12 409 116 116 116 259 259 259 259 259 308 308 308 308 372 372 372 17 17 17
 17 247 247 247 247 247 325 325 325 12 12 409 116 116 116 259 259 259 259 259
 308 308 308 308 372 372 372 372 17 17 17 247 247 247 247 247 325 325 12 12
 12 409 116 116 116 259 259 259 259 259 308 308 308 308 372 372 372 372 17 17
 17 288 113 113 113 247 325 325 12 12 12 409 116 116 234 259 259 259 259 259
 260 284 284 284 372 372 310 310 248 288 288 288 288 466 466 466 374 374 374 429
 429 234 234 234 234 234 259 259 259 260 337 284 284 284 487 487 310 310 248 288
 288 288 288 466 466 466 63 63 63 29 29 234 234 234 234 234 234 337 337 337
 337 284 284 487 487 487 310 248 248 288 288 288 288 466 466 405 405 63 29 29
 29 29 234 234 234 234 234 337 337 337 337 284 487 487 487 487 310 310 248 500
 500 500 123 123 123 405 405 29 29 29 29 462 462 234 234 234 337 337 337 337
 337 337 487 487 487 487 310 239 500 500 500 500 123 123 123 123 123 29 29 29
 462 462 462 462 234 234 337 337 337 337 19 337 487 370 370 370 239 239 239 500
 500 500 123 123 123 123 123 29 122 122 462 462 462 462 462 278 337 337 19 19
 19 19 370 370 370 370 239 239 239 239 500 123 123 123 123 123 123 123 122 122
 462 462 462 462 278 278 278 301 19 19 19 19 370 370 370 370 239 239 239 239
 239 123 123 123 123 123 123 410 122 122 122 462 462 462 278 278 278 301 301 19
 207 207 207 370 370 370 239 239 239 239 239 123 51 51 51 123 410 410 122 122
 122 448 448 448 278 278 263 263 263 263 207 207 207 207 402 402 23 23 239 239
 70 70 51 51 51 224 410 410 410 122 448 448 448 448 172 263 263 263 263 263
 207 207 207 207 402 402 402 138 331 331 70 70 70 51 224 224 224 410 410 122
 448 448 448 172 172 172 263 263 263 263 207 207 207 207 402 402 402 331 331 331
 70 70 70 224 224 224 224 224 410 202 202 202 202 172 172 172 172 172 263 263
 461 461 461 461 402 402 402 471 471 471 70 70 70 70 224 224 224 224 226 202
 202 202 202 172 172 172 172 172 263 461 461 461 461 461 461 402 402 471 471 471
 471 471 70 70 450 450 450 450 373 373 202 202 202 172 172 172 172 172 172 461
 461 461 461 461 461 344 344 471 471 471 471 471 70 83 83 83 83 83 373 373
 373 202 202 333 194 194 194 146 461 461 461 461 461 461 344 344 344 344 380 380
 380 471 83 83 83 83 83 83 373 373 373 202 202 333 194 194 213 146 381 381
 381 461 461 461 344 344 344 344 318 318 318 318 318 83 83 83 83 83 373 373
 373 373 476 476 476 146 146 146 381 381 381 312 312 312 312 344 344 318 318 318
 318 318 318 142 142 142 142 142 373 373 373 38 476 476 476 476 146 146 381 381
 381 312 312 312 312 495 495 495 318 318 318 318 318 142 142 142 142 286 286 354
 354 476 476 476 476 476 146 262 262 381 74 74 312 312 495 495 495 495 495 318
 318 318 318 142 142 142 142 286 286 354 354 34 476 476 476 262 262 262 262 262
 74 74 74 74 495 495 495 495 495 100 100 318 142 142 142 142 142 286 286 354
 34 34 447 447 447 262 262 262 262 262 74 74 74 74 495 495 495 495 495 100
 100 100 400 142 142 142 142 286 286 34 34 34 447 447 447 262 262 262 262 262
 74 74 74 74 495 495 495 495 495 100 100 100 400 400 400 400 456 456 456 340
 340 447 447 447 447 262 262 262 262 262 350 74 74 74 382 382 495 495 495 481
 481 400 400 400 400 400 456 456 456 340 59 59 447 447 447 393 262 120 347 347
 350 350 350 350 382 382 382 382 481 481 481 125 400 400 400 456 456 456 456 59
 59 59 109 109 119 119 120 120 120 347 350 350 350 350 382 382 382 382 481 106
 106 106 247 270 270 270 456 456 456 12 59 59 116 116 119 259 120 120 120 347
 350 350 350 350 372 372 372 106 106 106 106 106 247 247 247 325 325 325 325 325
 409 409 409 116 116 259 120 120 120 350 350 350 350 350 372 372 372 106 106 106
 106 106 247 247 247 325 325 325 325 325 409 409 409 116 116 259 259 259 259 350
 308 350 308 231 372 372 372 372 17 17 17 247 247 247 247 325 325 325 325 12
 409 409 409 116 116 259 259 259 259 259 308 284 284 284 372 372 372 47 47 17
 288 288 288 288 113 325 325 325 325 12 409 409 116 116 234 259 259 259 259 259
 284 284 284 284 284 310 310 310 288 288 288 288 288 288 466 466 374 374 374 439
 439 439 234 234 234 234 259 259 259 260 284 284 284 284 284 310 310 310 310 288
 288 288 288 288 466 405 63 63 63 29 29 439 234 234 234 234 234 337 337 337
 284 284 284 284 310 310 310 310 310 500 288 288 288 123 405 405 405 63 29 29
 29 29 234 234 234 234 234 337 337 337 284 284 284 284 310 310 310 310 310 500
 500 500 123 123 405 405 405 29 29 29 29 462 462 234 234 234 337 337 337 337
 337 284 284 284 310 310 310 310 500 500 500 500 123 123 123 405 405 29 29 29
 462 462 462 462 317 317 118 337 337 337 19 284 284 370 370 370 239 239 239 500
 500 500 123 123 123 123 123 123 122 122 462 462 462 462 317 317 317 118 19 19
 19 19 370 370 370 370 239 239 239 239 500 123 123 123 123 123 123 122 122 122
 122 462 462 462 278 278 278 301 19 19 19 370 370 370 370 370 239 239 239 239
 239 123 123 123 123 123 123 122 122 122 122 122 462 111 278 278 278 263 263 263
 263 207 207 370 370 370 239 239 239 239 239 123 123 123 123 123 410 122 122 122
 122 111 111 111 111 278 263 263 263 263 263 207 207 212 402 402 239 239 331 331
 331 70 51 51 123 224 410 410 122 122 122 111 111 111 111 263 263 263 263 263
 207 207 207 207 402 402 402 331 331 331 331 70 70 51 323 323 323 410 410 122
 448 111 111 111 111 263 263 263 263 263 75 75 207 207 402 402 402 331 331 331
 331 70 70 224 323 323 323 115 115 115 202 202 111 172 172 172 172 263 263 263
 461 461 461 461 461 402 402 331 331 331 331 70 70 323 323 101 101 115 115 202
 202 202 202 172 172 172 172 172 121 121 461 461 461 461 461 402 273 471 471 471
 471 471 70 101 101 101 101 101 373 373 202 202 202 172 172 172 172 172 121 121
 461 461 461 461 461 273 273 471 471 380 380 471 145 145 101 101 101 101 373 373
 373 202 202 213 213 213 213 121 121 121 461 461 461 461 273 273 273 273 380 380
 380 145 145 145 83 83 83 83 373 373 373 202 202 213 213 213 213 146 121 121
 461 461 461 461 273 273 273 273 380 380 318 145 145 145 145 83 83 83 373 373
 373 228 228 476 213 213 213 146 381 381 381 312 312 312 273 273 273 273 318 318
 318 318 145 145 145 142 142 142 354 373 228 228 228 476 476 476 146 146 381 381
 381 312 312 312 312 495 495 495 318 318 318 318 145 145 142 142 142 286 354 354
 354 228 228 476 476 476 262 262 262 381 74 74 312 312 495 495 495 495 495 318
 318 318 145 142 142 142 142 286 354 354 354 228 228 476 476 262 262 262 262 262
 74 74 74 74 495 495 495 495 495 100 100 318 142 142 142 142 142 286 286 354
 354 228 447 447 447 262 262 262 262 262 74 74 74 74 495 495 495 495 495 100
 100 100 400 142 142 142 142 286 340 340 340 340 447 447 447 262 262 262 262 262
 350 74 74 74 495 495 495 495 495 100 100 100 400 400 400 400 456 456 340 340
 340 340 447 393 393 393 262 262 262 350 350 350 350 350 350 382 495 495 137 137
 137 400 400 400 400 400 456 456 340 340 340 340 393 393 393 393 120 120 120 350
 350 350 350 350 350 382 382 382 106 106 106 106 400 400 400 456 456 456 340 340
 340 340 393 393 393 393 120 120 120 350 350 350 350 350 350 382 382 382 106 106
 106 106 247 270 270 325 325 325 325 340 340 340 393 393 393 120 120 120 120 350
 350 350 350 231 231 372 372 106 106 106 106 106 223 223 223 325 325 325 325 325
 409 409 409 116 116 259 120 120 120 350 1 350 350 231 231 372 434 106 106 106
 106 106 223 223 223 325 325 325 325 325 409 409 409 116 116 259 259 259 1 1
 1 350 350 231 231 434 434 47 47 47 47 106 353 353 223 325 325 325 325 325
 409 409 409 116 116 259 259 259 1 1 1 350 284 231 434 434 310 47 47 47
 47 288 353 353 353 325 325 325 325 325 409 439 439 116 234 259 259 259 1 1
 284 284 284 284 310 310 310 310 47 47 288 288 288 353 353 325 325 325 325 439
 439 439 439 234 234 306 306 259 259 1 284 284 284 284 310 310 310 310 310 288
 288 288 288 288 288 405 405 517 439 439 439 439 439 439 234 234 306 364 337 337
 284 284 284 284 310 310 310 310 310 500 288 288 288 123 405 405 405 517 29 29
 439 439 439 234 234 306 364 364 337 337 284 284 284 284 310 310 310 310 310 500
 500 500 123 123 123 405 405 405 29 29 29 439 439 234 234 118 118 118 337 337
 284 284 284 284 310 310 310 310 500 500 500 500 123 123 123 123 123 123 29 122
 462 462 462 462 317 118 118 118 118 337 284 284 284 370 370 310 310 310 500 500
 500 500 123 123 123 123 123 123 122 122 122 462 462 303 317 317 118 118 118 19
 19 284 370 370 370 370 239 239 239 500 500 123 123 123 123 123 123 123 122 122
 122 462 303 303 317 317 317 118 118 118 19 370 370 370 370 370 239 239 239 239
 500 123 123 123 123 123 123 122 122 122 122 111 111 111 278 278 278 263 263 263
 263 212 212 212 370 370 239 239 239 239 239 123 123 123 123 123 123 122 122 122
 122 111 111 111 111 111 263 263 263 263 263 212 212 212 212 402 239 239 331 331
 331 385 123 123 123 323 115 115 122 122 111 111 111 111 111 111 263 263 263 263
 75 75 75 212 212 402 331 331 331 331 331 385 385 385 323 323 115 115 115 122
 111 111 111 111 111 111 263 263 263 263 75 75 75 75 402 402 402 331 331 331
 331 385 385 385 323 323 115 115 115 115 111 111 111 111 111 111 263 263 121 121
 121 75 461 461 461 402 402 331 331 331 385 385 385 385 323 323 115 115 115 115
 227 202 111 172 172 172 172 121 121 121 121 461 461 461 461 461 273 471 471 471
 471 385 385 102 102 101 101 115 115 115 202 202 202 172 172 172 172 121 121 121
 121 461 461 461 461 273 273 273 380 380 380 145 145 102 102 102 102 115 373 373
 227 202 227 213 213 213 213 121 121 121 346 346 346 461 273 273 273 273 380 380
 380 145 145 145 145 102 102 417 417 373 228 228 228 213 213 213 84 84 121 121
 346 346 346 461 273 273 273 33 380 380 380 145 145 145 145 145 145 417 417 228
 228 228 228 228 213 213 84 84 84 121 346 346 346 312 273 273 33 33 245 318
 318 145 145 145 145 145 145 417 417 228 228 228 228 228 228 213 84 84 84 381
 346 312 312 312 312 273 495 495 245 318 318 145 145 145 145 145 142 354 354 354
 228 228 228 228 228 213 262 262 262 381 257 257 257 324 495 495 495 495 137 137
 318 145 145 145 145 145 142 354 354 354 354 228 228 228 420 262 262 262 262 262
 74 74 74 74 503 495 495 495 137 137 137 137 145 145 142 142 240 240 354 354
 354 228 228 420 420 420 262 262 262 262 350 74 74 350 503 495 495 137 137 137
 137 137 137 145 142 142 240 340 340 180 180 180 180 420 420 420 420 262 262 262
 350 350 350 350 350 495 495 137 137 137 137 137 137 137 400 400 340 340 340 340
 340 180 180 393 393 420 420 420 262 350 350 350 350 350 350 350 137 137 137 137
 137 137 137 400 88 88 88 340 340 340 340 340 340 393 393 393 420 120 350 350
 350 350 350 350 350 350 382 137 137 137 137 106 106 88 88 88 88 340 340 340
 340 340 340 393 393 393 120 120 120 350 350 350 350 350 350 350 382 106 106 106
 106 106 106 88 88 88 325 325 325 340 340 340 393 393 393 393 120 120 120 350
 1 350 350 231 231 434 434 434 106 106 106 106 223 223 208 88 88 325 325 43
 43 43 43 43 43 73 120 1 1 1 1 350 231 231 231 434 434 434 106 106
 106 106 223 208 223 40 325 325 325 325 43 43 43 43 43 73 259 1 1 1
 1 1 231 231 231 434 434 434 47 47 47 106 353 223 223 325 325 325 325 43
 43 43 43 43 43 73 259 1 1 1 1 1 231 231 434 434 434 434 47 47
 47 288 353 353 353 353 325 325 325 439 439 439 43 43 43 306 259 1 1 1
 284 284 284 284 310 310 310 310 47 47 47 288 353 353 353 353 325 325 439 439
 439 439 439 439 306 306 306 306 364 1 284 284 284 284 310 310 310 310 310 288
 288 288 288 288 353 353 517 517 439 439 439 439 439 439 306 306 306 364 364 364
 284 284 284 284 310 310 310 310 310 310 288 288 288 123 405 405 517 517 517 439
 439 439 439 439 306 306 364 364 364 364 284 284 284 284 310 310 310 310 310 500
 500 500 123 123 123 123 517 517 517 517 439 439 439 439 306 364 364 364 364 364
 284 284 284 412 412 310 310 310 310 500 500 500 123 123 123 123 517 517 517 517
 521 521 521 303 303 118 118 118 118 364 519 519 519 412 412 412 412 310 500 500
 500 123 123 123 123 123 123 517 144 122 521 521 521 303 303 317 118 118 118 118
 519 519 412 412 412 412 412 412 500 500 500 123 123 123 123 123 123 144 122 122
 122 521 303 303 303 317 118 118 118 118 519 212 212 412 412 412 412 412 483 483
 483 123 123 123 123 123 123 144 122 122 122 111 111 303 303 303 303 263 263 263
 212 212 212 212 412 412 412 239 483 483 483 123 123 123 123 491 491 115 122 122
 111 111 111 111 111 111 263 263 263 263 212 212 212 212 212 412 412 239 331 331
 385 385 385 491 491 491 491 115 115 122 111 111 111 111 111 111 263 263 263 263
 75 75 212 212 212 402 331 331 331 331 385 385 385 491 491 491 115 115 115 115
 111 111 111 111 111 111 263 263 263 263 75 75 75 75 75 108 108 331 331 331
 385 385 385 385 323 323 115 115 115 115 111 111 111 111 111 111 263 263 121 121
 121 75 75 461 461 108 108 141 141 141 385 385 385 102 102 323 115 115 115 115
 227 227 227 227 111 111 121 121 121 121 121 121 461 461 461 108 108 141 141 141
 141 141 385 102 102 102 102 115 115 227 227 227 227 227 227 465 121 121 121 121
 121 346 346 461 461 108 33 33 141 141 141 145 102 102 102 102 102 115 417 227
 227 227 227 227 213 84 84 84 121 121 346 346 346 461 273 33 33 33 245 245
 245 145 145 145 102 102 102 417 417 417 228 228 228 228 213 84 84 84 84 121
 346 346 346 346 33 33 33 33 245 245 245 145 145 145 145 145 145 417 417 417
 228 228 228 228 228 84 84 84 84 121 346 346 346 346 33 33 33 33 245 245
 245 145 145 145 145 145 145 417 417 417 228 228 228 228 228 84 84 84 84 121
 257 257 257 324 324 33 33 33 245 245 245 145 145 145 145 145 240 240 417 228
 228 228 228 228 228 171 84 84 84 104 257 257 257 324 324 503 137 137 137 137
 137 145 145 145 145 145 240 240 240 228 228 228 228 228 420 420 171 104 104 104
 324 257 257 324 503 503 137 137 137 137 137 137 137 145 145 240 240 240 240 180
 180 228 228 420 420 420 420 104 104 104 350 350 350 350 503 503 137 137 137 137
 137 137 137 137 145 240 240 240 180 180 180 180 180 420 420 420 420 420 104 104
 350 350 350 350 503 503 137 137 137 137 137 137 137 137 88 88 240 180 180 180
 180 180 180 420 420 420 420 420 104 350 350 350 350 350 350 350 137 137 137 137
 137 137 137 88 88 88 88 180 180 340 340 180 180 393 393 420 420 420 350 350
 350 350 350 350 350 350 137 137 137 137 137 137 137 88 88 88 88 88 340 340
 340 180 180 393 393 393 420 420 350 350 350 271 350 350 350 350 350 137 137 106
 106 106 106 88 88 88 88 88 180 180 180 43 43 393 393 393 120 120 1 350
 1 350 350 350 350 434 434 434 518 106 106 106 223 223 88 88 88 88 88 43
 43 43 43 43 73 73 73 1 1 1 1 1 350 231 434 434 434 434 434 106
 106 106 223 223 40 40 40 40 325 43 43 43 43 43 73 73 73 1 1 1
 1 1 231 231 434 434 434 434 47 47 47 47 223 223 40 40 40 325 43 43
 43 43 43 43 73 73 73 1 1 1 1 1 231 231 434 434 434 434 47 47
 47 47 353 353 353 40 40 325 43 43 43 43 43 43 73 73 73 1 1 1
 284 284 390 390 434 434 434 310 47 47 47 288 353 353 353 353 517 517 517 439
 439 439 439 306 306 306 306 306 364 364 284 284 390 390 310 310 310 310 310 310
 288 288 288 353 353 517 517 517 517 439 439 439 439 306 306 306 306 364 364 364
 284 284 390 390 310 310 310 310 310 310 288 288 288 123 517 517 517 517 517 517
 439 439 439 306 306 306 364 364 364 364 284 519 390 412 310 310 310 310 310 310
 500 500 123 123 123 517 517 517 517 517 521 439 439 306 306 364 364 364 364 364
 519 519 519 412 412 412 310 310 310 310 500 500 123 123 123 517 517 517 517 517
 521 521 521 303 303 364 364 364 364 364 519 519 519 412 412 412 412 412 483 483
 483 123 123 123 123 123 517 144 144 144 521 521 521 303 303 303 118 118 118 364
 519 519 519 412 412 412 412 412 483 483 483 483 123 123 123 123 144 144 144 144
 521 521 303 303 303 303 303 118 118 118 519 519 519 412 412 412 412 483 483 483
 483 483 123 123 123 491 144 144 144 144 111 111 303 303 303 303 303 303 263 263
 519 186 186 186 186 412 412 483 483 483 483 483 123 491 491 491 491 491 144 122
 111 111 111 111 303 303 303 91 91 91 212 212 212 186 186 186 397 397 483 483
 483 385 385 491 491 491 491 491 491 111 111 111 111 111 111 111 111 91 91 91
 75 75 212 212 186 186 397 397 473 473 385 385 385 491 491 491 491 115 115 115
 111 111 111 111 111 111 111 91 91 91 75 75 75 212 186 108 108 473 473 473
 385 385 385 491 491 491 115 115 115 115 227 319 319 111 111 111 111 91 91 121
 121 75 75 461 108 108 108 141 141 141 141 385 385 102 102 491 115 115 115 227
 227 227 227 227 111 465 465 465 121 121 121 121 461 108 108 108 108 141 141 141
 141 141 102 102 102 102 102 115 115 227 227 227 227 227 227 465 465 465 121 121
 121 346 346 461 108 108 108 141 141 141 141 141 102 102 102 102 102 417 417 164
 227 227 227 227 227 84 84 84 121 121 346 346 346 346 108 33 33 33 245 245
 245 145 145 102 102 102 102 417 417 164 164 227 227 227 84 84 84 84 84 121
 346 346 346 346 33 33 33 33 245 245 245 145 145 145 145 102 417 417 417 417
 228 228 228 228 84 84 84 84 84 121 346 346 346 324 324 36 36 36 245 245
 245 145 145 145 145 145 240 417 417 417 228 228 228 228 228 84 84 84 84 121
 257 257 257 324 324 36 36 36 245 245 245 145 145 145 145 145 240 240 240 417
 228 228 228 228 171 171 171 84 104 104 257 257 257 324 324 503 36 137 137 137
 137 137 145 145 145 240 240 240 240 240 228 228 228 171 171 171 171 104 104 104
 324 257 257 324 503 503 503 137 137 137 137 137 137 145 145 240 240 240 240 180
 180 180 180 420 420 171 171 104 104 104 324 257 257 503 503 503 503 137 137 137
 137 137 137 137 145 240 240 240 180 180 180 180 180 420 420 420 420 104 104 104
 350 350 350 350 503 503 137 137 137 137 137 137 137 137 88 88 240 180 180 180
 180 180 180 420 420 420 420 420 104 104 350 350 350 350 350 503 137 137 137 137
 137 137 137 88 88 88 88 180 180 180 180 180 180 420 420 420 420 420 314 350
 350 350 350 350 350 350 137 137 137 137 137 137 137 88 88 88 88 88 180 180
 180 180 180 420 420 420 420 420 314 350 350 350 350 350 350 350 137 137 137 137
 106 106 88 88 88 88 88 88 180 180 43 43 43 43 420 420 420 420 1 1
 1 350 350 183 350 434 434 434 518 518 518 518 223 88 88 88 88 88 496 43
 43 43 43 43 73 73 73 1 1 1 1 1 350 350 434 434 434 434 518 518
 518 518 223 88 40 40 40 40 496 43 43 43 43 43 73 73 73 1 1 1
 1 1 231 231 434 434 434 434 518 518 518 518 360 360 40 40 40 40 43 43
 43 43 43 43 73 73 73 73 1 1 1 1 231 434 434 434 434 434 518 518
 518 518 360 360 360 360 40 334 334 43 43 43 43 43 5 5 5 5 1 1
 157 390 390 390 434 434 434 310 310 47 47 167 360 360 360 360 334 334 334 334
 439 439 439 306 306 306 306 306 306 364 157 390 390 390 390 310 310 310 310 310
 167 167 167 360 360 360 517 334 334 334 439 439 439 306 306 306 306 364 364 364
 157 390 390 390 390 310 310 310 310 310 167 167 167 360 360 517 517 517 517 517
 439 439 439 306 306 306 364 364 364 364 519 519 390 390 412 310 310 310 310 310
 167 167 167 123 517 517 517 517 517 517 521 521 521 5 5 364 364 364 364 364
 519 519 519 412 412 412 412 412 310 310 483 483 123 123 123 517 517 517 517 517
 521 521 521 303 303 364 364 364 364 364 519 519 519 412 412 237 412 412 412 483
 483 483 130 123 123 517 517 144 144 144 521 521 521 303 303 303 303 364 364 519
 519 519 519 412 412 412 412 412 483 483 483 483 130 130 357 357 144 144 144 144
 521 521 521 303 303 303 303 303 118 519 519 519 519 412 412 412 412 483 483 483
 483 483 130 130 357 357 144 144 144 144 521 521 303 303 303 303 303 303 303 91
 446 446 186 186 186 412 397 397 483 433 483 483 490 490 491 491 491 491 144 144
 111 111 303 303 303 303 303 91 91 91 446 446 186 186 186 397 397 397 397 483
 483 483 490 490 491 491 491 491 144 67 111 111 111 111 303 303 91 91 91 91
 91 446 186 186 186 397 397 397 397 473 473 328 328 490 491 491 491 491 67 67
 319 319 111 111 111 111 91 91 91 91 75 75 75 212 108 108 108 397 473 473
 473 328 328 491 491 491 491 491 67 67 319 319 319 227 111 111 91 91 91 91
 121 75 75 108 108 108 108 141 141 141 141 328 328 491 491 491 491 491 67 67
 227 227 227 227 227 465 465 465 91 121 121 121 108 108 108 108 108 141 141 141
 141 141 102 102 102 102 102 115 67 227 227 227 227 227 227 465 465 465 121 121
 121 79 346 108 108 108 108 141 141 141 141 358 102 102 102 102 102 102 164 164
 227 227 227 227 227 465 465 84 121 121 346 79 79 108 108 108 33 358 358 358
 358 358 102 102 102 102 102 417 164 164 164 355 355 355 355 84 84 84 84 121
 346 79 346 324 324 36 36 36 245 245 245 245 145 145 102 102 102 417 417 417
 164 355 355 355 355 84 84 84 84 84 324 324 324 324 324 36 36 36 245 245
 245 245 145 145 145 145 240 417 417 417 417 228 228 228 171 171 84 84 84 324
 257 257 324 324 324 36 36 36 245 245 245 245 145 145 145 145 240 240 240 240
 228 228 228 171 171 171 171 171 324 324 257 257 257 324 324 324 36 36 327 245
 137 137 145 145 145 240 240 240 240 240 403 228 228 171 171 171 171 104 104 324
 324 257 257 324 503 503 503 137 137 137 137 137 137 145 145 240 240 240 240 403
 403 403 180 171 171 171 171 104 104 104 324 324 324 324 503 89 503 137 137 137
 137 137 137 137 145 240 240 240 180 180 180 180 180 420 420 420 420 104 104 104
 324 350 350 324 503 503 503 137 137 137 137 137 137 137 88 88 240 180 180 180
 180 180 180 420 420 420 420 420 104 104 350 350 350 350 503 503 503 137 137 137
 137 137 137 88 88 88 88 180 180 180 180 180 180 420 420 420 420 420 314 314
 350 350 350 183 183 183 137 137 137 137 137 137 137 88 88 88 88 88 180 180
 180 180 180 420 420 420 420 314 314 314 1 350 350 183 183 183 137 137 137 137
 137 137 88 88 88 88 88 88 496 180 43 43 43 43 420 420 420 314 314 314
 1 350 350 290 290 434 434 518 518 518 518 518 35 35 88 88 88 496 496 43
 43 43 43 43 30 30 30 30 314 314 1 1 290 290 290 434 434 518 518 518
 518 518 35 35 40 40 40 496 496 43 43 43 43 43 30 30 30 30 1 1
 1 1 290 290 434 434 434 434 518 518 518 518 360 360 360 40 40 496 496 43
 43 43 43 43 30 30 30 30 1 1 1 1 290 290 434 434 434 434 518 518
 518 518 360 360 360 360 334 334 334 43 43 43 43 43 5 5 5 5 5 1
 157 157 390 390 434 434 434 310 518 518 167 167 360 360 360 360 334 334 334 334
 97 97 97 5 5 5 5 5 5 157 157 157 390 390 390 310 310 310 310 167
 167 167 167 360 360 360 334 334 334 334 97 97 97 5 5 5 5 5 364 157
 157 157 390 390 390 310 310 310 310 167 167 167 167 360 513 517 517 517 517 517
 97 97 97 5 5 5 5 364 364 157 157 157 390 390 412 412 412 310 310 167