# vtk DataFile Version 2.0
Data set from IO Version 6.4.197.9a0dee2
ASCII

DATASET RECTILINEAR_GRID
DIMENSIONS 31 31 31
X_COORDINATES 31 float
-1.116667 1.116667 3.350000 5.583333 7.816666 10.049999 12.283332 14.516665 16.749998 18.983332 21.216665 23.449997 25.683331 27.916664 30.149996 32.383331 34.616665 36.849998 39.083332 41.316666 43.549999 
45.783329 48.016663 50.249996 52.483330 54.716663 56.949997 59.183331 61.416660 63.649998 65.883324 
Y_COORDINATES 31 float
-1.116667 1.116667 3.350000 5.583333 7.816666 10.049999 12.283332 14.516665 16.749998 18.983332 21.216665 23.449997 25.683331 27.916664 30.149996 32.383331 34.616665 36.849998 39.083332 41.316666 43.549999 
45.783329 48.016663 50.249996 52.483330 54.716663 56.949997 59.183331 61.416660 63.649998 65.883324 
Z_COORDINATES 31 float
-1.116667 1.116667 3.350000 5.583333 7.816666 10.049999 12.283332 14.516665 16.749998 18.983332 21.216665 23.449997 25.683331 27.916664 30.149996 32.383331 34.616665 36.849998 39.083332 41.316666 43.549999 
45.783329 48.016663 50.249996 52.483330 54.716663 56.949997 59.183331 61.416660 63.649998 65.883324 
CELL_DATA 27000
SCALARS FeatureIds int 1
LOOKUP_TABLE default
 249 249 521 521 521 521 468 468 468 343 343 343 88 88 88 88 181 181 181 181
 287 341 341 214 214 114 114 145 249 249 249 249 521 521 521 521 156 156 156 343
 343 343 88 88 88 88 181 181 181 181 341 341 341 214 114 114 114 249 249 249
 249 90 90 90 90 156 156 156 156 343 343 109 109 109 88 88 181 181 181 181
 341 341 341 341 114 114 114 249 249 249 249 90 90 90 90 153 156 156 156 343
 343 109 109 109 109 88 181 181 181 181 341 341 341 341 290 290 290 249 249 249
 261 90 90 90 153 153 153 257 257 378 343 109 109 109 179 401 401 401 401 444
 444 341 365 365 290 290 290 290 249 261 261 261 90 215 215 153 153 153 378 378
 378 473 105 105 179 179 401 401 444 444 444 444 365 365 290 290 290 290 261 261
 261 261 261 215 215 153 153 153 378 378 378 473 374 374 179 179 179 266 444 444
 444 444 365 425 425 290 290 425 434 434 261 261 215 215 215 192 153 153 378 378
 378 473 374 374 179 179 266 266 266 444 444 444 444 425 425 338 338 425 425 434
 367 367 367 192 192 192 192 12 322 322 322 430 430 430 430 266 266 266 266 266
 185 185 75 75 425 338 338 425 425 434 367 367 367 192 192 192 192 12 322 322
 322 430 430 430 430 266 266 266 266 266 185 185 75 75 425 338 338 425 295 295
 295 367 503 201 192 192 192 12 322 322 322 298 430 430 430 430 266 266 266 266
 185 75 75 75 425 425 425 425 295 295 295 503 201 201 201 192 192 12 322 322
 298 298 298 430 430 430 266 266 266 266 423 423 75 75 425 425 425 295 295 295
 274 274 274 201 201 192 192 104 104 104 298 298 298 430 430 497 446 266 266 423
 423 423 423 423 425 425 425 295 295 295 274 274 274 274 201 192 192 104 104 104
 104 1 1 1 497 497 497 376 376 321 423 423 423 423 35 35 35 35 295 295
 488 274 488 488 488 488 137 137 137 137 137 137 1 497 497 497 497 376 376 376
 423 423 423 423 35 35 35 35 220 220 488 488 488 488 488 488 137 137 137 137
 137 137 137 497 497 497 497 497 376 126 231 231 231 224 35 35 35 35 220 220
 488 488 488 488 488 488 137 137 137 137 137 137 137 497 497 497 497 305 305 305
 305 231 224 224 35 35 35 35 35 220 488 488 488 488 488 108 398 398 398 398
 398 398 398 279 279 497 497 305 305 305 305 305 224 224 224 35 35 35 35 488
 123 488 488 488 108 108 108 398 398 398 398 398 398 279 279 299 277 305 305 305
 305 305 224 224 224 35 35 35 123 123 123 456 456 456 108 108 108 398 398 398
 398 398 398 279 279 277 277 275 275 305 305 305 136 136 136 136 136 123 123 123
 123 456 456 108 108 108 108 398 398 398 398 398 279 279 279 277 277 275 275 275
 305 136 136 136 136 136 136 123 123 123 262 168 168 108 108 108 108 398 398 408
 408 39 39 279 279 277 275 275 275 275 275 136 136 136 136 136 136 190 190 123
 262 168 168 168 280 280 280 280 408 408 408 39 39 39 306 306 244 244 244 275
 275 313 313 313 313 136 196 196 196 196 262 168 168 280 280 280 280 280 408 408
 408 39 39 306 306 306 244 244 244 244 368 368 313 313 313 313 196 196 196 196
 262 168 168 280 280 280 280 280 280 428 408 53 53 306 306 306 306 244 244 244
 368 368 368 313 313 313 196 196 196 196 262 131 131 280 280 280 280 280 280 506
 506 53 53 53 306 306 306 244 244 493 368 368 368 368 313 313 145 196 196 196
 131 131 131 280 280 280 280 280 506 506 506 53 53 53 53 53 306 244 493 493
 493 368 368 368 368 145 145 145 145 18 131 131 131 131 116 116 116 116 506 506
 506 506 53 53 53 41 41 493 493 493 493 493 152 152 214 145 145 145 145 18
 131 131 131 521 116 116 468 468 468 506 506 506 53 53 41 41 41 493 493 493
 493 493 152 214 214 214 145 145 145 18 249 131 521 521 521 521 468 468 468 506
 506 506 88 88 88 41 181 181 181 181 493 493 493 214 214 214 145 145 145 249
 249 249 521 521 521 521 468 468 468 343 343 88 88 88 88 88 182 182 181 181
 341 341 341 214 214 114 114 145 249 249 249 249 90 90 521 521 468 468 468 343
 343 88 88 88 88 88 182 182 181 181 341 341 341 214 114 114 114 249 249 249
 249 90 90 90 90 156 156 156 156 343 343 88 88 88 88 88 182 182 182 181
 341 341 341 214 114 114 114 249 249 249 249 90 90 90 90 153 153 257 257 343
 343 109 88 88 88 88 182 182 182 182 341 341 341 290 290 290 290 290 249 249
 261 90 90 90 153 153 153 257 257 378 378 109 105 105 179 179 401 182 182 182
 341 341 365 365 290 290 290 290 290 261 261 261 90 215 215 153 153 153 378 378
 378 378 105 105 179 179 401 401 444 444 444 365 365 365 365 290 290 290 290 261
 261 261 261 215 215 153 153 153 378 378 378 378 105 179 179 179 179 266 266 444
 444 365 365 365 365 290 290 290 261 261 261 261 261 215 215 153 153 153 378 378
 378 378 430 179 179 179 266 266 266 266 444 444 365 425 425 338 338 425 261 261
 367 367 367 192 192 192 192 192 322 322 322 430 430 430 430 179 266 266 266 266
 185 185 185 75 425 338 338 425 425 261 367 367 367 192 192 192 192 322 322 322
 322 430 430 430 430 430 266 266 266 266 185 185 185 75 425 338 338 425 295 295
 295 367 367 201 192 192 192 322 322 322 322 430 430 430 430 430 266 266 266 266
 185 185 75 75 425 425 425 425 295 295 295 274 201 201 201 192 192 322 322 322
 322 298 430 430 430 430 446 446 266 266 423 423 423 75 425 425 425 295 295 295
 274 274 274 201 201 192 192 464 464 464 464 1 1 394 430 446 446 446 446 423
 423 423 423 423 13 425 425 295 295 295 274 274 274 274 201 175 175 464 464 464
 1 1 1 394 497 497 446 446 446 423 423 423 423 423 13 13 13 295 295 295
 274 274 274 274 175 175 175 137 137 464 137 1 1 497 497 497 497 497 237 237
 423 423 423 423 13 13 13 35 220 220 220 488 488 488 175 175 175 137 137 137
 137 137 1 497 497 497 497 497 237 126 237 423 423 13 13 13 35 35 220 220
 220 488 488 488 175 175 175 137 137 137 398 398 398 497 497 497 497 305 305 305
 305 305 224 224 224 13 35 35 220 220 456 456 456 456 175 175 175 398 398 398
 398 398 398 497 497 497 497 305 305 305 305 305 224 89 224 13 35 35 123 123
 456 456 456 456 108 108 108 398 398 398 398 398 398 299 299 299 277 305 305 305
 305 305 224 224 224 13 35 123 123 123 123 456 456 456 108 108 108 398 398 398
 398 23 398 299 299 277 277 277 305 305 305 305 136 136 136 136 136 123 123 123
 123 456 456 456 108 108 108 108 398 398 398 23 398 299 299 277 277 277 275 275
 305 136 136 136 136 136 136 123 123 123 123 168 168 46 108 108 108 514 514 514
 408 39 39 279 279 277 244 244 275 275 489 489 136 136 136 136 136 196 196 123
 196 168 168 168 280 108 280 514 514 514 408 39 39 39 306 244 244 244 244 489
 489 489 313 313 313 313 196 196 196 196 196 168 168 168 280 280 280 280 428 428
 408 39 39 306 306 306 244 244 244 244 489 489 313 313 313 313 313 196 196 196
 196 168 168 280 280 280 280 280 428 428 428 53 53 53 306 306 244 244 244 244
 368 368 313 313 313 313 196 196 196 196 196 168 131 280 280 280 280 280 428 428
 506 53 53 53 53 306 244 244 244 493 368 368 368 368 313 313 196 196 196 196
 131 131 131 280 280 280 280 280 280 506 506 53 53 53 53 53 244 244 493 493
 493 493 368 368 214 214 145 145 145 145 131 131 131 131 280 280 280 280 506 506
 506 506 53 53 41 41 41 41 493 493 493 493 493 214 214 214 145 145 145 145
 131 131 131 131 116 468 468 468 468 506 506 506 53 53 41 41 41 41 493 493
 493 493 493 214 214 214 145 145 145 145 249 131 521 521 521 468 468 468 468 63
 506 506 88 88 88 41 41 182 181 493 493 493 214 214 214 214 145 145 145 145
 249 86 521 521 521 521 468 468 83 63 83 88 88 88 88 182 182 182 182 182
 341 341 214 214 214 114 145 145 249 249 249 86 90 90 521 521 186 186 186 83
 83 88 88 88 88 182 182 182 182 182 341 341 341 214 114 114 114 249 249 249
 249 90 90 90 90 90 186 186 83 83 83 88 88 88 88 182 182 182 182 182
 341 341 341 214 114 114 290 249 249 249 249 90 90 90 153 153 153 153 83 83
 83 88 88 88 88 182 182 182 182 182 341 341 341 290 290 290 290 290 249 249
 261 90 90 90 153 153 153 153 257 378 378 207 105 105 179 179 182 182 182 182
 341 365 365 365 290 290 290 290 290 261 261 261 153 153 153 153 153 153 378 378
 378 378 105 105 179 179 401 182 182 182 410 365 365 365 365 290 290 290 290 261
 261 261 153 153 153 153 153 153 378 378 378 378 105 179 179 179 179 266 266 410
 410 410 365 365 290 290 290 290 261 261 261 261 261 153 153 153 153 153 378 378
 378 207 430 179 179 179 266 266 266 266 410 410 410 230 230 230 290 290 261 261
 367 367 367 192 192 192 192 192 322 322 322 430 430 430 430 430 266 266 266 266
 185 185 410 230 230 230 230 230 230 261 367 367 367 192 192 192 192 322 322 322
 322 430 430 430 430 430 266 266 266 266 185 185 185 230 230 230 230 230 295 295
 295 367 367 201 192 192 192 322 322 322 322 430 430 430 430 430 266 266 266 266
 185 185 185 230 230 230 230 230 295 295 295 274 201 201 201 192 192 322 322 322
 322 430 430 430 430 430 446 446 446 423 423 423 423 230 230 230 230 230 295 295
 295 274 274 201 201 192 192 158 158 158 158 1 394 394 394 394 446 446 446 423
 423 423 423 423 13 3 3 295 295 295 274 274 274 274 175 175 175 158 158 158
 158 1 394 394 394 497 446 446 446 423 423 423 423 423 13 3 13 13 295 295
 274 274 274 274 175 175 175 175 158 158 158 1 394 394 497 497 497 446 446 237
 423 423 423 13 13 13 13 13 220 220 220 274 274 130 175 175 175 175 137 137
 137 137 394 497 497 497 497 497 126 126 237 423 13 13 13 13 13 13 220 220
 456 456 456 130 175 175 175 175 398 398 398 398 398 497 497 497 497 305 305 305
 305 305 224 224 13 13 13 13 220 220 456 456 456 456 130 175 175 175 398 398
 398 398 398 398 497 497 497 305 305 305 305 305 224 224 224 13 13 13 123 456
 456 456 456 456 108 108 108 398 398 398 398 398 398 299 299 299 277 305 305 305
 305 305 224 224 224 13 13 13 123 123 456 456 456 46 108 108 108 108 398 398
 398 398 398 299 299 277 277 277 305 305 305 305 136 136 136 136 13 123 123 123
 123 46 46 46 108 108 108 514 514 514 514 398 398 299 299 277 277 277 275 275
 305 489 136 136 136 136 136 123 123 123 46 46 46 46 46 108 108 514 514 514
 514 514 39 160 160 277 244 244 244 489 489 489 489 136 136 136 136 196 196 196
 196 168 168 46 280 280 280 514 514 514 514 514 39 160 160 160 244 244 244 489
 489 489 489 313 313 313 196 196 196 196 196 168 168 168 280 280 280 280 428 428
 428 39 160 160 160 160 244 244 244 489 489 489 313 313 313 313 196 196 196 196
 196 168 168 280 280 280 280 280 428 428 428 428 53 160 160 160 244 244 244 244
 489 489 313 313 313 313 196 196 196 196 196 168 168 280 280 280 280 280 428 428
 428 53 53 53 160 160 160 244 244 493 368 368 368 313 313 313 145 145 196 196
 131 131 131 280 280 280 280 280 428 506 506 53 53 53 53 41 41 332 332 493
 493 493 493 214 214 145 145 145 145 145 131 131 131 131 280 280 280 280 63 63
 506 53 53 53 41 41 41 332 332 493 493 493 493 214 214 145 145 145 145 145
 131 131 131 131 280 280 468 468 63 63 63 506 53 41 41 41 41 332 332 493
 493 493 214 214 214 214 145 145 145 145 249 131 131 521 521 468 468 468 63 63
 63 63 88 88 41 41 182 182 182 493 493 493 214 214 214 214 145 145 145 145
 86 86 86 521 521 186 186 186 63 83 83 83 88 88 88 182 182 182 182 182
 182 341 214 214 214 114 145 145 145 249 86 86 86 90 521 186 186 186 186 83
 83 83 88 88 88 182 182 182 182 182 182 341 341 377 377 114 114 249 249 249
 86 86 90 90 90 186 186 186 83 83 83 83 88 88 88 182 182 182 182 182
 182 341 240 240 240 290 290 290 249 249 249 90 90 90 153 153 153 153 83 83
 83 83 88 88 88 182 182 182 182 182 182 341 240 240 290 290 290 290 290 249
 261 90 90 153 153 153 153 153 153 378 207 207 207 105 179 182 182 182 182 182
 182 365 365 365 290 290 290 290 290 261 261 261 153 153 153 153 153 153 153 378
 207 207 207 207 179 179 182 182 182 182 410 365 365 365 290 290 290 290 290 261
 261 261 261 153 153 153 153 153 378 378 207 207 207 207 179 179 179 266 266 410
 410 410 410 365 290 290 290 290 261 261 261 261 261 153 153 153 153 153 378 207
 207 207 207 207 179 179 266 266 266 410 410 410 410 230 230 230 230 230 261 261
 367 367 367 153 153 153 153 153 322 322 207 207 207 430 430 430 266 266 266 245
 410 410 410 230 230 230 230 230 230 261 367 367 367 192 192 192 192 322 322 322
 322 207 430 430 430 430 266 266 266 245 245 185 185 230 230 230 230 230 230 295
 295 367 367 201 192 192 192 322 322 322 322 430 430 430 430 430 266 266 266 245
 185 185 185 230 230 230 230 230 295 295 295 274 201 201 201 192 192 158 158 158
 120 120 311 394 394 394 446 446 446 446 423 423 423 230 230 230 230 230 295 295
 295 274 274 201 383 383 383 158 158 158 158 394 394 394 394 394 446 446 446 423
 423 423 423 423 13 3 3 3 295 295 274 274 274 484 175 175 158 158 158 158
 158 394 394 394 394 394 446 446 446 423 423 423 423 13 3 3 3 13 13 295
 253 253 253 253 175 175 175 158 158 158 158 394 394 394 394 497 497 446 446 423
 423 423 423 13 13 13 13 13 13 220 253 253 253 130 175 175 175 175 158 158
 158 158 394 394 497 497 497 497 126 126 237 423 13 13 13 13 13 13 13 220
 456 456 456 130 175 175 175 175 175 398 398 398 394 394 497 497 497 305 305 305
 305 305 13 13 13 13 13 13 13 456 456 456 456 130 130 175 175 175 398 398
 398 398 398 259 259 497 497 305 305 305 305 305 224 224 13 13 13 13 456 456
 456 456 456 456 46 108 108 175 398 398 398 398 398 299 299 299 277 305 305 305
 305 305 224 224 13 13 13 13 456 456 456 456 46 46 46 108 108 514 514 514
 514 398 398 299 299 277 292 292 292 292 305 358 358 136 136 136 13 123 123 456
 46 46 46 46 46 108 108 514 514 514 514 514 398 299 299 277 292 292 292 292
 358 358 358 358 136 136 136 123 123 46 46 46 46 46 46 438 514 514 514 514
 514 514 514 160 160 160 160 292 292 489 489 489 489 489 136 136 136 196 196 196
 46 46 46 46 438 438 438 514 514 514 514 514 160 160 160 160 160 244 244 489
 489 489 489 313 313 313 248 196 196 196 196 168 168 438 438 438 438 428 428 428
 428 514 160 160 160 160 160 244 244 489 489 489 489 313 313 313 196 196 196 196
 241 241 241 241 438 438 438 428 428 428 428 428 160 160 160 160 160 244 244 489
 489 489 489 313 313 313 196 196 196 196 241 241 241 280 280 280 280 280 428 428
 428 445 160 160 160 160 160 244 244 332 489 489 489 313 313 313 145 145 145 196
 241 241 241 241 280 280 280 280 428 428 445 53 53 160 160 160 160 332 332 332
 493 493 493 214 214 145 145 145 145 145 131 131 131 131 280 280 280 280 63 63
 63 53 53 53 41 41 41 332 332 332 493 493 493 214 214 145 145 145 145 145
 131 131 131 131 280 280 468 63 63 63 63 63 53 41 41 41 41 332 332 332
 493 493 214 214 214 214 145 145 145 145 249 131 131 521 521 468 468 63 63 63
 63 63 88 88 41 182 182 182 182 182 493 493 214 214 214 214 145 145 145 145
 86 86 86 86 87 87 186 186 83 83 83 83 88 88 182 182 182 182 182 182
 182 377 377 377 377 454 454 454 454 249 86 86 86 86 87 87 186 186 83 83
 83 83 88 88 182 182 182 182 182 182 182 341 377 377 377 377 454 454 454 249
 86 86 86 90 87 87 186 186 83 83 83 83 88 88 182 182 182 182 182 182
 182 240 240 240 240 290 290 290 405 249 272 90 90 90 153 153 153 153 83 83
 83 83 83 88 182 182 182 182 182 182 182 240 240 240 240 290 290 290 290 405
 272 90 90 153 153 153 153 153 207 207 207 207 207 207 207 182 182 182 182 182
 182 240 240 290 290 290 290 290 290 290 261 261 153 153 153 153 153 153 207 207
 207 207 207 207 207 65 182 182 182 182 410 410 365 290 290 290 290 290 290 505
 261 261 153 153 153 153 153 153 207 207 207 207 207 207 207 65 65 182 182 410
 410 410 410 290 290 290 290 290 290 505 261 261 261 153 452 452 153 153 207 207
 207 207 207 207 207 65 266 266 245 245 410 410 410 410 113 113 113 290 505 505
 505 505 518 518 518 518 518 518 207 207 207 207 207 207 430 469 469 266 245 245
 245 410 410 230 230 230 230 230 230 505 505 367 518 518 518 518 518 518 120 207
 207 207 207 311 311 469 469 245 245 245 245 245 410 230 230 230 230 230 230 295
 295 367 518 518 518 518 518 120 120 120 120 120 311 311 311 469 469 37 245 245
 245 245 230 230 230 230 230 230 230 295 295 274 484 383 383 383 383 120 120 120
 120 120 311 311 311 469 37 37 37 245 245 245 371 230 230 230 230 230 295 295
 295 274 484 484 383 383 383 120 120 120 120 120 311 311 394 394 303 303 303 303
 423 423 423 13 13 13 13 13 67 295 253 253 484 484 484 383 383 158 158 158
 158 394 394 394 394 394 303 303 303 303 423 423 13 13 13 13 13 13 13 253
 253 253 253 484 484 175 175 175 158 158 158 158 394 394 394 394 303 303 303 303
 423 423 13 13 13 13 13 13 13 253 253 253 253 253 175 175 175 175 158 158
 158 158 394 394 394 497 303 303 303 234 234 13 13 13 13 13 13 13 13 253
 253 253 253 253 175 175 175 404 404 158 158 259 259 259 259 497 497 303 234 234
 234 234 13 13 13 13 13 13 13 253 456 456 456 456 175 175 404 404 404 345
 398 259 259 259 259 259 259 234 234 234 234 234 224 13 13 13 13 13 13 456
 456 456 46 46 46 175 404 404 373 398 398 398 259 259 259 259 292 292 292 234
 234 234 500 500 500 13 13 13 456 456 46 46 46 46 46 46 373 514 514 514
 514 398 259 259 259 292 292 292 292 292 292 358 358 358 500 13 13 13 123 46
 46 46 46 46 46 46 46 514 514 514 514 514 514 160 160 292 292 292 292 292
 358 358 358 358 358 136 13 46 46 46 46 46 46 46 46 438 438 514 514 514
 514 514 514 160 160 160 292 292 292 292 358 358 358 358 358 248 248 248 46 46
 46 46 46 46 438 438 438 514 514 514 514 514 160 160 160 160 160 292 292 292
 358 358 358 358 358 248 248 248 196 196 241 241 241 438 438 438 438 438 428 428
 445 445 160 160 160 160 160 244 244 489 489 489 489 313 248 248 248 248 196 196
 241 241 241 241 438 438 438 438 428 428 445 445 160 160 160 160 160 244 244 251
 489 489 489 313 313 248 248 241 241 241 241 241 241 241 438 438 438 445 445 445
 445 445 160 160 160 160 160 160 332 361 489 489 319 319 319 319 145 145 241 241
 241 241 241 241 241 280 280 445 445 445 445 445 445 160 160 160 160 332 332 332
 493 493 268 319 319 319 145 145 145 241 241 241 241 241 241 280 280 63 63 63
 445 445 445 160 41 41 41 332 332 332 493 493 268 214 214 145 145 145 145 145
 241 131 241 241 36 36 63 63 63 63 63 63 154 154 41 182 182 182 332 332
 493 493 214 214 214 214 95 95 145 145 350 350 350 36 36 36 36 63 63 63
 63 63 88 154 182 182 182 182 182 182 493 493 214 214 214 214 95 95 95 145
 350 350 350 87 87 87 87 87 83 83 83 83 28 28 28 182 182 182 182 522
 522 522 106 106 106 454 454 454 454 454 86 86 86 87 87 87 87 87 83 83
 83 83 28 28 28 182 182 182 182 182 182 106 106 106 106 454 454 454 454 405
 405 86 86 87 87 87 87 87 83 83 83 83 28 28 28 182 182 182 182 182
 182 106 106 106 106 106 454 405 405 405 272 272 272 87 87 87 87 87 83 83
 83 207 207 28 28 182 182 182 182 182 182 240 240 240 290 290 290 290 405 405
 272 272 272 153 153 153 153 153 207 207 207 207 207 207 207 65 182 182 150 150
 375 375 375 290 290 290 290 290 290 405 505 505 153 153 153 153 153 153 207 207
 207 207 207 207 207 65 65 150 150 150 375 375 375 290 290 290 290 290 505 505
 505 505 452 452 452 452 452 153 207 207 207 207 207 207 207 65 65 150 245 245
 410 410 375 113 113 113 113 290 505 505 505 505 452 452 452 452 452 153 207 207
 207 207 207 207 207 65 65 245 245 245 245 410 410 113 113 113 113 113 505 505
 505 505 518 518 518 518 518 518 207 207 207 207 207 207 207 469 469 245 245 245
 245 245 410 230 113 113 113 230 505 505 505 346 518 518 518 467 518 518 120 120
 207 207 207 311 469 469 469 245 245 245 245 245 371 230 230 230 230 230 173 505
 346 346 518 518 518 518 518 120 120 120 120 120 311 311 311 469 469 37 245 245
 245 245 371 371 371 230 230 230 67 173 346 484 484 518 383 233 383 120 120 120
 120 120 311 311 311 469 37 37 37 245 245 371 371 371 371 230 230 67 67 67
 253 484 484 484 383 383 383 120 120 120 120 120 311 311 311 311 303 303 303 303
 303 15 15 371 371 13 13 67 67 67 253 253 484 484 484 383 383 120 120 120
 120 120 311 311 311 303 303 303 303 303 15 15 15 15 13 13 13 13 67 253
 253 253 253 484 484 175 175 404 158 158 158 158 394 394 427 303 303 303 303 303
 15 15 15 13 13 13 13 13 13 253 253 253 253 253 175 404 404 404 404 158
 345 259 259 259 427 427 303 303 303 234 234 15 13 13 13 13 13 13 13 253
 253 253 253 253 175 404 404 404 404 345 345 259 259 259 259 427 427 303 234 234
 234 234 500 500 500 13 13 13 13 253 456 253 46 46 46 404 404 404 345 345
 345 345 259 259 259 427 427 234 234 234 234 234 500 500 500 500 13 13 13 456
 46 46 46 46 46 404 404 373 373 345 345 345 259 259 259 259 292 292 292 234
 234 234 500 500 500 500 500 500 520 520 46 46 46 46 46 404 373 373 373 514
 345 345 259 259 259 292 292 292 292 292 292 358 358 500 500 500 500 520 520 520
 46 46 46 46 46 46 373 373 373 514 514 514 259 259 481 481 292 292 292 292
 292 358 358 358 500 500 500 520 520 520 46 46 46 46 46 438 438 514 514 514
 514 514 448 481 481 481 481 292 292 292 358 358 358 358 358 248 248 248 520 520
 46 46 46 46 438 438 438 438 514 514 445 445 445 160 481 481 481 292 292 292
 358 358 358 358 248 248 248 248 248 520 241 241 241 438 438 438 438 438 445 445
 445 445 445 160 160 160 160 361 251 251 358 358 358 358 248 248 248 248 248 241
 241 241 241 241 438 438 438 438 445 445 445 445 445 160 160 160 361 361 361 251
 251 251 319 319 319 248 248 248 191 241 241 241 241 241 438 438 438 438 445 445
 445 445 445 160 160 160 361 361 361 361 251 251 319 319 319 319 191 191 191 191
 241 241 241 241 438 438 438 445 445 445 445 445 445 160 160 160 361 361 361 361
 268 268 268 319 319 319 191 191 191 191 241 241 241 241 36 36 36 445 445 445
 445 445 445 154 154 154 361 361 361 522 268 268 268 268 319 319 95 95 191 191
 350 350 241 241 36 36 36 63 63 63 63 445 154 154 154 154 182 182 522 522
 522 268 268 268 319 95 95 95 95 191 350 350 350 36 36 36 36 63 63 83
 83 83 143 154 154 182 182 182 522 522 522 522 268 214 454 454 95 95 95 95
 350 350 350 350 87 87 87 87 258 258 143 143 28 28 28 28 522 522 522 522
 522 522 84 377 377 454 454 454 454 350 350 350 350 87 87 87 87 87 83 83
 83 28 28 28 28 28 182 522 522 522 522 84 377 377 377 454 454 454 405 405
 405 405 487 87 87 87 87 87 83 83 83 28 28 28 28 28 182 182 522 522
 522 84 377 377 377 377 454 405 405 405 272 272 272 272 87 87 87 87 87 83
 83 28 28 28 28 28 150 150 150 150 150 375 377 377 377 290 290 405 405 405
 272 272 272 272 452 87 87 87 207 207 207 207 207 207 65 65 65 150 150 150
 375 375 375 375 290 290 290 405 405 272 272 272 272 452 452 452 452 207 207 207
 207 207 207 207 65 65 65 150 150 150 375 375 375 375 290 290 290 290 505 505
 505 505 452 452 452 452 452 452 207 207 207 207 207 207 65 65 65 150 150 150
 375 375 375 375 113 113 113 113 505 505 505 505 505 452 452 452 452 452 207 207
 207 207 207 207 207 65 65 453 245 245 375 375 375 113 113 113 113 113 505 505
 505 346 346 518 518 518 518 518 207 207 207 207 207 207 207 469 453 453 245 245
 245 245 371 113 113 113 113 113 505 505 346 346 346 518 518 518 518 518 207 207
 207 207 207 311 469 469 469 453 245 245 245 245 371 371 371 371 22 22 173 173
 346 346 346 518 518 518 518 120 120 120 120 120 311 311 311 469 469 37 245 245
 245 371 371 371 371 371 22 22 22 173 346 346 346 383 383 383 383 120 120 120
 120 120 311 311 311 469 37 37 37 245 245 371 371 371 371 371 22 67 67 67
 253 484 484 484 383 383 383 120 120 120 120 120 311 311 311 311 303 303 303 303
 15 15 15 371 371 371 67 67 67 67 253 253 484 484 484 383 349 120 120 120
 120 120 311 311 311 303 303 303 303 303 15 15 15 15 371 13 13 67 67 67
 253 253 253 484 484 484 404 404 16 158 345 345 427 427 427 427 303 303 303 303
 15 15 15 15 13 13 13 13 67 253 253 253 253 253 484 404 404 404 345 345
 345 345 427 427 427 427 427 303 303 234 15 15 500 500 500 13 13 369 369 253
 253 253 253 253 253 404 404 404 345 345 345 345 259 259 427 427 427 427 234 234
 234 234 500 500 500 500 500 369 253 253 253 253 46 46 404 404 404 404 345 345
 345 345 259 259 259 427 427 427 234 234 234 234 500 500 500 500 500 500 520 520
 520 46 46 46 46 404 373 373 373 345 345 345 259 259 259 427 292 292 292 292
 234 234 500 500 500 500 500 520 520 520 520 46 46 46 46 373 373 373 373 345
 345 132 132 132 132 132 292 292 292 292 292 358 500 500 500 500 500 520 520 520
 520 46 46 46 46 366 373 373 373 373 345 132 448 448 481 481 292 292 292 292
 292 358 358 358 500 500 500 520 520 520 520 46 46 46 366 366 366 373 373 373
 514 448 448 448 481 481 481 292 292 292 358 358 358 358 248 248 248 248 520 520
 301 301 46 46 438 438 438 438 445 445 445 445 448 448 481 481 481 292 251 251
 358 358 358 358 248 248 248 248 520 520 241 241 241 438 438 438 438 438 445 445
 445 445 445 160 481 481 481 361 251 251 251 358 358 248 248 248 248 248 248 191
 241 241 241 241 438 438 438 445 445 445 445 445 445 160 160 361 361 361 361 251
 251 251 319 319 319 248 248 248 191 191 241 241 241 241 438 438 438 445 445 445
 445 445 445 160 160 361 361 361 361 361 251 251 319 319 319 319 248 191 191 191
 241 241 241 241 241 438 438 445 445 445 445 445 445 154 154 361 361 361 361 361
 268 268 268 319 319 319 319 191 191 191 241 241 241 241 36 36 36 445 445 445
 445 445 154 154 154 154 361 361 361 522 268 268 268 319 319 319 293 293 191 191
 350 350 350 36 36 36 36 36 258 258 258 143 154 154 154 154 522 522 522 522
 268 268 268 319 319 454 454 95 454 350 350 350 350 36 36 36 36 36 258 258
 258 143 143 154 154 154 522 522 522 522 522 522 268 319 454 454 454 454 454 350
 350 350 487 487 36 36 87 87 258 258 143 143 28 28 28 28 522 522 522 522
 522 84 84 84 377 454 454 454 454 350 487 487 487 487 87 87 87 87 258 143
 143 143 28 28 28 28 522 522 522 522 522 84 84 84 377 454 454 454 405 405
 405 487 487 487 87 87 87 87 87 143 143 28 28 28 28 28 522 522 522 522
 522 84 84 84 377 318 454 405 405 405 272 272 272 272 87 87 87 87 87 207
 207 28 28 28 28 28 150 150 150 150 150 375 375 84 377 318 290 405 405 405
 272 272 272 272 87 87 87 87 207 207 207 207 207 65 65 65 65 150 150 150
 375 375 375 375 375 290 290 405 405 272 272 272 272 452 452 452 354 207 207 207
 207 207 207 65 65 65 65 150 150 150 375 375 375 375 375 290 290 505 505 505
 505 272 336 452 452 452 452 207 207 207 207 207 207 207 65 65 65 150 150 150
 375 375 375 375 113 113 113 505 505 505 505 505 346 452 452 452 452 452 207 207
 207 207 207 207 207 65 453 453 453 453 375 375 375 375 113 113 113 505 505 505
 346 346 346 183 518 518 518 518 207 207 207 207 207 207 207 453 453 453 453 245
 337 337 337 371 113 113 113 173 173 173 346 346 346 183 518 518 518 518 21 207
 207 207 207 207 469 469 453 453 453 245 337 337 371 371 371 22 22 22 173 173
 346 346 346 183 518 518 518 120 120 120 120 120 311 311 311 469 469 453 453 245
 337 371 371 371 371 22 22 22 22 173 346 203 203 203 383 383 383 120 120 16
 16 120 311 311 311 19 19 37 37 296 371 371 371 371 371 371 22 22 67 67
 253 460 460 460 460 383 349 349 16 16 16 16 311 311 311 311 303 303 303 303
 15 15 371 371 371 371 22 67 67 67 253 253 460 460 460 349 349 349 16 16
 16 16 311 311 311 303 303 303 303 15 15 15 15 15 371 369 369 67 67 67
 253 253 253 460 484 349 349 349 16 16 16 16 427 427 427 427 427 416 416 416
 15 15 15 15 13 369 369 369 369 369 253 253 253 253 103 404 404 404 345 345
 345 345 427 427 427 427 427 416 416 416 98 98 98 500 500 369 369 369 369 369
 253 253 253 253 103 404 404 404 345 345 345 345 259 427 427 427 427 416 416 98
 98 98 98 500 500 500 369 369 369 369 520 253 46 103 103 404 404 404 345 345
 345 345 132 427 427 427 427 416 234 98 98 98 500 500 500 500 500 369 369 520
 520 520 46 46 103 103 373 373 345 345 345 345 132 132 132 427 427 292 292 292
 98 98 500 500 500 500 500 520 520 520 520 520 46 46 46 373 373 373 373 345
 345 132 132 132 132 132 292 292 292 292 292 98 500 500 500 500 500 520 520 520
 520 301 301 301 366 366 373 373 373 26 26 132 132 448 132 132 292 292 292 292
 292 358 358 500 500 69 69 520 520 520 301 301 301 301 366 366 366 373 373 26
 26 165 448 448 448 481 481 292 292 292 292 358 358 358 248 248 248 248 520 520
 301 301 301 301 366 366 366 373 26 26 26 165 165 448 481 481 481 251 251 251
 251 358 358 358 248 248 248 248 391 301 301 301 301 301 438 438 438 438 445 445
 445 445 165 165 481 481 361 361 251 251 251 251 358 319 248 248 248 248 391 391
 241 241 241 241 438 438 438 445 445 445 445 445 445 165 160 361 361 361 361 251
 251 251 319 319 319 248 248 248 191 191 191 241 241 241 438 438 445 445 445 445
 445 445 445 445 361 361 361 282 361 361 251 251 319 319 319 319 293 293 191 191
 191 241 241 241 241 36 445 445 445 445 445 445 445 154 154 361 361 361 361 361
 268 268 268 319 319 319 293 293 191 191 241 241 241 241 36 36 36 36 258 258
 143 143 154 154 154 154 361 361 361 522 268 268 268 319 319 319 293 293 293 191
 350 350 350 36 36 36 36 36 258 258 258 143 143 154 154 154 335 522 522 522
 522 268 268 319 319 293 293 293 293 350 350 350 350 36 36 36 36 36 258 258
 258 143 143 154 154 335 335 522 522 522 522 522 268 319 454 454 454 454 454 350
 487 487 487 487 36 36 36 87 143 143 143 143 143 28 28 335 335 522 522 522
 522 84 84 84 318 318 318 293 454 487 487 487 487 487 87 87 87 87 143 143
 143 143 28 28 28 28 238 522 522 522 522 84 84 84 318 318 318 318 405 487
 487 487 487 487 87 87 87 87 331 143 143 143 28 28 28 238 238 238 522 522
 84 84 84 84 318 318 318 405 405 487 272 272 487 487 87 87 87 87 331 143
 143 143 28 28 28 238 238 150 150 150 150 84 84 84 318 318 318 405 405 405
 272 336 336 336 354 354 354 354 325 207 207 207 207 28 65 65 65 150 150 150
 375 375 375 375 513 318 318 68 405 272 336 336 336 336 354 354 354 354 325 207
 207 207 207 65 65 65 65 150 150 150 375 375 375 375 513 513 68 68 323 323
 336 336 336 354 354 354 354 354 325 325 325 207 207 207 65 65 65 150 150 150