# vtk DataFile Version 2.0
Data set from ImportExport Version 6.5.141.ec284b7a5
ASCII

DATASET RECTILINEAR_GRID
DIMENSIONS 26 26 26
X_COORDINATES 26 float
-3.000000 3.000000 9.000000 15.000000 21.000000 27.000000 33.000000 39.000000 45.000000 51.000000 57.000000 63.000000 69.000000 75.000000 81.000000 87.000000 93.000000 99.000000 105.000000 111.000000 117.000000 
123.000000 129.000000 135.000000 141.000000 147.000000 
Y_COORDINATES 26 float
-3.000000 3.000000 9.000000 15.000000 21.000000 27.000000 33.000000 39.000000 45.000000 51.000000 57.000000 63.000000 69.000000 75.000000 81.000000 87.000000 93.000000 99.000000 105.000000 111.000000 117.000000 
123.000000 129.000000 135.000000 141.000000 147.000000 
Z_COORDINATES 26 float
-3.000000 3.000000 9.000000 15.000000 21.000000 27.000000 33.000000 39.000000 45.000000 51.000000 57.000000 63.000000 69.000000 75.000000 81.000000 87.000000 93.000000 99.000000 105.000000 111.000000 117.000000 
123.000000 129.000000 135.000000 141.000000 147.000000 
CELL_DATA 15625
SCALARS FeatureIds int 1
LOOKUP_TABLE default
 66 66 66 66 66 66 42 42 42 42 42 42 42 42 42 42 42 98 98 98
 98 98 98 66 66 66 66 66 66 66 66 42 42 42 42 42 42 42 25 25
 42 98 98 98 98 98 98 29 29 66 66 66 66 66 66 66 42 42 42 42
 42 42 25 25 25 25 98 98 98 98 98 29 29 29 29 29 29 66 63 63
 63 63 42 42 42 42 42 25 25 25 74 83 83 83 29 29 29 29 29 29
 29 29 63 63 63 63 63 63 42 42 42 42 74 74 74 74 74 83 83 83
 29 29 29 29 29 29 63 63 63 63 63 63 63 63 42 65 74 74 74 74
 74 74 83 83 83 83 29 29 29 29 29 63 63 63 63 63 63 63 63 65
 65 74 74 74 74 74 74 83 83 83 83 29 29 29 29 63 63 63 63 63
 63 63 63 63 65 65 65 65 74 74 74 74 74 83 83 29 29 29 29 29
 63 63 63 63 63 63 63 63 63 65 65 65 65 65 40 40 40 74 29 29
 29 29 29 29 29 63 63 63 63 63 63 63 63 63 65 65 65 65 65 40
 40 40 40 29 29 29 85 85 85 85 63 63 63 63 63 63 63 63 63 65
 65 65 65 65 40 40 40 40 40 29 85 85 85 85 85 85 63 63 63 63
 63 63 63 63 65 65 65 65 65 40 40 40 40 40 85 85 85 85 85 85
 85 84 63 63 63 63 63 59 59 59 92 65 65 65 65 65 40 40 85 85
 85 85 85 85 85 84 84 84 84 63 59 59 59 59 59 92 92 92 92 65
 65 40 40 85 85 85 85 85 85 84 84 84 84 84 84 59 59 59 59 59
 92 92 92 92 92 86 86 86 71 71 85 85 85 84 84 84 84 84 84 59
 59 59 59 59 59 92 92 92 92 92 86 86 86 71 71 71 71 85 84 84
 84 84 84 84 59 59 59 59 59 59 92 92 92 86 86 86 86 86 71 71
 71 71 71 84 84 84 84 84 84 59 59 59 59 59 59 59 92 86 86 86
 86 86 86 71 71 71 71 71 71 84 84 84 84 59 59 59 59 59 59 59
 59 59 86 86 86 86 86 86 86 71 71 71 71 71 71 71 84 84 90 90
 90 59 59 59 59 59 42 86 86 86 86 86 86 86 71 71 71 71 71 71
 71 66 66 90 90 90 90 59 59 59 42 42 42 86 86 86 86 86 86 71
 71 71 71 71 71 66 66 66 90 90 90 90 90 42 42 42 42 42 42 86
 86 86 86 71 71 71 71 71 71 71 66 66 66 66 90 90 90 90 42 42
 42 42 42 42 42 86 86 86 71 71 71 71 71 71 66 66 66 66 66 90
 90 90 42 42 42 42 42 42 42 42 42 86 86 98 71 71 71 71 66 66
 66 66 66 66 66 90 90 42 42 42 42 42 42 42 42 42 42 98 98 98
 98 98 71 66 66 66 66 66 66 66 66 42 42 42 42 42 42 42 42 42
 42 98 98 98 98 98 98 98 66 66 66 66 66 66 66 66 42 42 42 42
 42 42 42 42 42 42 98 98 98 98 98 98 29 29 66 66 66 66 66 66
 66 42 42 42 42 42 42 42 25 25 25 98 98 98 98 98 98 29 29 29
 29 29 66 66 63 63 63 42 42 42 42 42 42 25 25 74 83 83 83 83
 83 29 29 29 29 29 29 63 63 63 63 63 63 42 42 42 42 65 74 74
 74 83 83 83 83 83 83 29 29 29 29 63 63 63 63 63 63 63 63 65
 65 65 65 74 74 74 83 83 83 83 83 83 29 29 29 63 63 63 63 63
 63 63 63 63 65 65 65 65 65 74 74 74 83 83 83 83 83 29 29 29
 63 63 63 63 63 63 63 63 63 65 65 65 65 65 65 40 40 83 83 83
 83 29 29 29 29 63 63 63 63 63 63 63 63 63 65 65 65 65 65 40
 40 40 40 83 29 29 29 29 85 85 63 63 63 63 63 63 63 63 63 65
 65 65 65 65 40 40 40 40 83 29 29 85 85 85 85 85 63 63 63 63
 63 63 63 63 65 65 65 65 65 40 40 40 40 40 85 85 85 85 85 85
 85 63 63 63 63 63 63 63 63 65 65 65 65 65 65 40 40 40 40 85
 85 85 85 85 85 85 84 63 63 63 63 63 59 59 64 64 64 65 65 65
 65 40 40 85 85 85 85 85 85 85 84 84 84 84 63 59 59 59 59 59
 64 64 64 64 65 65 40 40 85 85 85 85 85 85 85 84 84 84 84 84
 59 59 59 59 59 92 92 92 92 92 86 86 86 86 85 85 85 85 84 84
 84 84 84 84 59 59 59 59 59 59 92 92 92 92 86 86 86 86 86 71
 71 85 85 84 84 84 84 84 84 59 59 59 59 59 59 92 92 92 92 86
 86 86 86 86 71 71 71 71 84 84 84 84 84 84 59 59 59 59 59 59
 59 92 92 86 86 86 86 86 86 71 71 71 71 71 84 84 84 84 59 59
 59 59 59 59 59 59 59 86 86 86 86 86 86 86 71 71 71 71 71 71
 71 84 84 90 90 90 59 59 59 59 59 59 86 86 86 86 86 86 86 71
 71 71 71 71 71 66 66 66 90 90 90 90 90 59 59 42 42 86 86 86
 86 86 86 86 71 71 71 71 71 71 66 66 66 90 90 90 90 90 59 42
 42 42 42 86 86 86 86 86 86 71 71 71 71 71 66 66 66 66 66 90
 90 90 90 42 42 42 42 42 42 86 86 86 86 86 71 71 71 71 66 66
 66 66 66 66 90 90 90 90 42 42 42 42 42 42 42 86 86 86 98 98
 71 71 71 66 66 66 66 66 66 66 90 90 42 42 42 42 42 42 42 42
 42 98 98 98 98 98 98 98 66 66 66 66 66 66 66 66 42 42 42 42
 42 42 42 42 42 42 98 98 98 98 98 75 75 66 66 66 66 66 66 66
 66 89 89 42 42 42 42 42 42 42 98 98 98 98 98 98 75 75 66 66
 66 66 66 66 66 100 89 89 42 42 42 42 42 25 25 98 98 98 98 98
 98 75 75 29 66 29 66 66 63 100 100 100 100 42 42 42 42 42 25 25
 83 83 83 83 83 83 83 29 29 29 29 63 63 63 100 100 100 100 100 42
 42 65 65 65 65 83 83 83 83 83 83 83 29 29 29 63 63 63 63 100
 100 100 100 100 65 65 65 65 65 65 74 83 83 83 83 83 83 29 29 29
 63 63 63 63 63 100 100 100 100 65 65 65 65 65 65 65 57 57 83 83
 83 83 29 29 29 63 63 63 63 63 63 100 100 100 65 65 65 65 65 65
 65 57 57 57 83 83 29 29 29 29 63 63 63 63 63 63 63 100 100 65
 65 65 65 65 65 40 40 57 57 57 29 29 29 85 85 63 63 63 63 63
 63 63 63 100 65 65 65 65 65 65 40 40 40 57 57 85 85 85 85 85
 85 63 63 63 63 63 63 63 63 65 65 65 65 65 65 40 40 40 40 85
 85 85 85 85 85 85 63 63 63 63 63 63 63 63 65 65 65 65 65 65
 65 40 40 40 85 85 85 85 85 85 85 84 63 63 63 63 63 59 64 64
 64 64 64 65 65 65 40 40 2 85 85 85 85 85 85 84 84 84 84 63
 59 59 59 59 64 64 64 64 64 65 65 40 40 13 13 13 13 85 85 85
 84 84 84 84 84 59 59 59 59 59 64 92 92 92 92 86 86 86 13 13
 13 13 85 84 84 84 84 84 84 59 59 59 59 59 59 92 92 92 92 92
 86 86 86 86 13 13 13 85 84 84 84 84 84 84 59 59 59 59 59 59
 92 92 92 86 86 86 86 86 86 71 71 71 84 84 84 84 84 84 84 59
 59 59 59 59 59 59 59 86 86 86 86 86 86 86 71 71 71 71 84 84
 84 84 84 59 59 59 59 59 59 59 59 59 86 86 86 86 86 86 86 71
 71 71 71 71 71 84 84 84 90 90 90 59 59 59 59 59 59 86 86 86
 86 86 86 86 71 71 71 71 71 71 66 66 66 90 90 90 90 59 59 59
 59 59 86 86 86 86 86 86 86 71 71 71 71 71 71 66 66 66 90 90
 90 90 90 59 42 42 42 86 86 86 86 86 86 86 71 71 71 71 66 66
 66 66 66 66 90 90 90 90 42 42 42 42 42 86 86 86 86 86 86 36
 71 71 71 66 66 66 66 66 66 90 90 90 90 42 42 42 42 42 42 42
 86 86 86 98 98 98 36 66 66 66 66 66 66 66 66 90 90 90 42 42
 42 42 42 42 42 42 98 98 98 98 98 98 66 66 66 66 66 66 66 66
 66 89 89 42 42 42 42 42 42 42 36 36 36 98 98 75 75 75 66 66
 66 66 66 66 66 89 89 89 89 42 42 42 42 42 42 98 98 98 98 98
 75 75 75 75 66 66 66 66 66 100 100 89 89 89 42 42 42 42 25 25
 98 98 98 98 98 75 75 75 75 11 66 66 69 100 100 100 100 100 100 42
 42 42 65 65 65 83 83 83 83 83 83 83 29 29 29 69 69 69 100 100
 100 100 100 100 100 65 65 65 65 65 83 83 83 83 83 83 83 29 29 29
 63 63 63 100 100 100 100 100 100 100 65 65 65 65 65 65 57 83 83 83
 83 83 29 29 29 63 63 63 100 100 100 100 100 100 100 65 65 65 65 65
 65 57 57 57 34 83 83 29 29 29 63 63 63 63 100 100 100 100 100 100
 65 65 65 65 65 65 57 57 57 57 83 29 29 29 29 63 63 63 63 63
 100 100 100 100 65 65 65 65 65 65 65 57 57 57 57 57 29 85 85 85
 63 63 63 63 63 63 100 100 100 65 65 65 65 65 65 65 40 57 57 57
 2 85 85 85 85 85 63 63 63 63 63 63 100 65 65 65 65 65 65 65
 65 65 40 57 2 2 85 85 85 85 85 63 63 63 63 63 63 63 65 65
 65 65 65 65 65 65 65 65 2 2 2 85 85 85 85 85 63 63 63 63
 63 63 59 64 64 64 64 64 65 65 65 65 65 2 13 13 13 13 85 85
 84 84 84 84 63 59 59 59 59 64 64 64 64 64 65 65 65 65 2 13
 13 13 13 85 84 84 84 84 84 59 59 59 59 59 59 64 64 64 64 65
 65 86 86 13 13 13 13 13 84 84 84 84 84 84 59 59 59 59 59 59
 59 64 92 92 86 86 86 86 86 32 32 32 32 84 84 84 84 84 84 59
 59 59 59 59 59 59 92 92 86 86 86 86 86 86 32 32 32 32 84 84
 84 84 84 84 59 59 59 59 59 59 59 53 86 86 86 86 86 86 86 86
 71 71 71 84 84 84 84 84 59 59 59 59 59 59 59 59 59 86 86 86
 86 86 86 86 86 71 71 71 71 84 84 84 84 90 90 59 59 59 59 59
 59 59 86 86 86 86 86 86 86 36 71 71 71 71 71 66 66 66 90 97
 97 97 59 59 59 59 86 86 86 86 86 86 86 86 36 36 36 71 71 66
 66 66 66 97 97 97 97 97 59 42 42 42 86 86 86 86 86 86 36 36
 36 36 36 66 66 66 66 66 66 97 97 97 97 42 42 42 42 42 86 86
 86 86 36 36 36 36 36 36 66 66 66 66 66 66 90 97 97 97 42 42
 42 42 42 42 86 36 36 36 36 36 36 36 36 66 66 66 66 66 66 66
 90 90 90 42 42 42 42 42 42 42 36 36 36 36 36 36 36 36 66 66
 70 70 56 56 56 56 89 89 42 42 42 42 42 23 36 36 36 36 36 36
 36 75 11 11 11 70 66 56 56 56 56 89 89 89 42 42 42 23 23 60
 36 98 36 36 36 75 75 11 11 11 70 66 69 69 100 100 100 89 89 42
 42 60 60 60 60 60 98 98 36 36 75 75 11 11 11 69 69 69 69 100
 100 100 100 100 100 42 60 60 60 60 60 34 34 34 34 34 34 11 11 11
 69 69 69 69 100 100 100 100 100 100 65 65 65 65 65 65 34 34 34 34
 34 34 34 29 11 69 69 69 69 100 100 100 100 100 100 65 65 65 65 65
 65 57 34 34 34 34 34 34 29 29 63 63 100 100 100 100 100 100 100 100
 65 65 65 65 65 65 57 57 34 34 34 34 34 29 29 63 63 100 100 100
 100 100 100 100 100 65 65 65 65 65 65 57 57 57 34 34 34 2 2 2
 63 63 63 100 100 100 100 100 100 100 65 65 65 65 65 65 57 57 57 2
 2 2 2 2 85 63 63 63 63 100 100 100 100 100 65 65 65 65 65 65
 65 65 57 2 2 2 2 2 2 85 85 63 63 63 63 100 100 100 100 65
 65 65 65 65 65 65 65 2 2 2 2 2 2 2 85 85 63 63 63 63
 63 63 100 100 65 65 65 65 65 65 65 65 2 2 2 2 2 2 2 85
 85 63 63 63 63 63 63 59 64 64 64 64 64 65 65 65 65 2 2 2
 2 2 2 2 85 84 84 84 63 63 59 59 59 59 64 64 64 64 64 65
 65 65 2 2 2 13 13 13 2 84 84 84 84 84 59 59 59 59 59 64
 64 64 64 64 64 65 65 2 2 2 32 32 32 2 84 84 84 84 84 59
 59 59 59 59 59 64 64 64 64 64 86 86 86 32 32 32 32 32 32 84
 84 84 84 84 59 59 59 59 59 59 53 53 53 53 86 86 86 86 32 32
 32 32 32 32 84 84 84 84 84 59 59 59 59 59 59 53 53 53 86 86
 86 86 86 86 86 32 32 32 32 84 84 84 84 59 59 59 59 59 59 59
 53 53 53 86 86 86 86 86 86 36 36 32 71 58 84 84 84 84 97 97
 97 59 59 59 59 7 53 86 86 86 86 86 86 36 36 36 36 58 58 58
 70 70 97 97 97 97 97 59 59 7 7 7 86 86 86 86 86 36 36 36
 36 36 58 58 58 70 70 70 97 97 97 97 97 7 7 7 7 7 86 86
 86 36 36 36 36 36 36 58 58 58 70 70 70 56 97 97 97 97 97 7
 7 7 7 7 86 36 36 36 36 36 36 36 36 58 58 70 70 70 56 56
 97 97 97 7 7 7 7 7 7 36 36 36 36 36 36 36 36 36 36 66
 70 70 70 56 56 56 97 97 7 7 7 7 7 42 36 36 36 36 36 36
 36 36 36 36 66 70 70 56 56 56 56 56 89 7 7 7 23 23 23 36
 36 36 36 36 36 36 36 11 11 11 11 70 56 56 56 56 56 89 89 7
 42 23 23 23 60 36 36 36 36 36 36 36 11 11 11 11 70 69 69 69
 100 100 100 89 60 60 60 60 60 60 60 60 34 36 36 36 36 11 11 11
 11 69 69 69 69 100 100 100 100 100 60 60 60 60 60 60 34 34 34 34
 34 34 11 11 11 69 69 69 69 69 100 100 100 100 100 65 60 60 60 60
 60 34 34 34 34 34 34 34 11 11 69 69 69 69 69 100 100 100 100 100
 65 65 65 65 65 65 57 34 34 34 34 34 34 34 76 69 69 69 69 100
 100 100 100 100 100 65 65 65 65 65 65 65 57 34 34 34 34 34 2 76
 63 63 100 100 100 100 100 100 100 65 65 65 65 65 65 65 65 57 34 34
 34 2 2 2 2 63 63 100 100 100 100 100 100 100 100 65 65 65 65 65
 65 65 57 2 2 2 2 2 2 2 2 63 100 100 100 100 100 100 100 65
 65 65 65 65 65 65 65 2 2 2 2 2 2 2 2 2 63 100 100 100
 100 100 100 100 65 65 65 65 65 65 65 65 2 2 2 2 2 2 2 2
 2 63 63 63 63 63 100 100 100 65 65 65 65 65 65 65 65 2 2 2
 2 2 2 2 2 2 63 63 63 80 63 100 100 64 64 64 64 65 65 65
 65 65 2 2 2 2 2 2 2 2 84 84 84 80 80 59 59 59 59 64
 64 64 64 64 65 65 2 2 2 2 2 2 2 2 2 84 84 84 84 59
 59 59 59 59 64 64 64 64 64 64 65 2 2 2 2 32 32 32 2 2
 84 67 67 84 59 59 59 59 59 59 64 64 64 64 64 86 86 32 32 32
 32 32 32 32 84 67 67 67 84 59 59 59 59 59 59 53 53 53 53 86
 86 86 86 32 32 32 32 32 32 84 67 67 67 67 59 59 59 59 59 59
 53 53 53 53 86 86 86 86 86 32 32 32 32 32 67 67 67 67 43 59
 59 59 59 59 59 53 53 53 53 86 86 86 86 36 36 36 32 32 58 58
 67 67 43 43 97 59 59 59 59 7 7 7 7 7 86 86 36 86 36 36
 36 36 58 58 58 70 70 70 97 97 97 97 7 7 7 7 7 7 7 86
 36 36 36 36 36 36 36 58 58 58 70 70 70 97 97 97 97 7 7 7
 7 7 7 7 86 36 36 36 36 36 36 36 58 58 58 70 70 70 56 56
 97 97 7 7 7 7 7 7 7 7 36 36 36 36 36 36 36 36 58 58
 70 70 70 56 56 56 97 7 7 7 7 7 7 7 36 36 36 36 36 36
 36 36 36 36 70 70 70 56 56 56 56 56 7 7 7 7 7 7 7 36
 36 36 36 36 36 36 36 36 36 70 70 70 56 56 56 56 56 56 7 7
 7 23 23 23 23 36 36 36 36 36 36 36 36 11 11 11 70 56 56 56
 56 81 55 7 7 60 23 23 23 60 60 36 36 36 36 36 36 11 11 11
 11 70 56 69 56 100 55 55 55 60 60 60 60 60 60 60 60 36 36 36
 36 36 11 11 11 11 69 69 69 100 100 55 55 55 55 60 60 60 60 60
 60 60 34 34 34 34 34 11 11 11 76 69 69 69 100 100 55 55 55 55
 55 60 60 60 60 60 60 34 34 34 34 34 34 11 11 76 69 69 69 100
 100 55 55 55 55 55 60 60 60 60 60 60 34 34 34 34 34 34 34 76
 76 69 69 100 100 100 100 55 55 55 47 65 65 65 65 65 65 34 34 34
 34 34 34 2 76 76 76 100 100 100 100 100 100 100 55 65 65 65 65 65
 65 65 34 34 34 34 2 2 2 2 2 100 100 100 100 100 100 100 100 100
 65 65 65 65 65 65 65 35 2 2 2 2 2 2 2 2 2 100 100 100
 100 100 100 100 100 65 65 65 65 65 65 35 35 2 2 2 2 2 2 2
 2 2 80 80 100 100 100 100 100 37 65 65 65 65 65 65 35 35 2 2
 2 2 2 2 2 2 2 80 80 80 100 100 100 37 37 65 65 65 65 65
 65 65 2 2 2 2 2 2 2 2 2 2 80 80 80 80 100 100 87 87
 87 87 87 65 65 65 2 2 2 2 2 2 2 2 2 2 2 80 80 80
 80 59 59 87 87 87 87 87 87 87 65 2 2 2 2 2 2 2 2 2
 67 67 67 43 43 59 59 59 87 87 87 87 87 87 87 87 2 2 2 2
 2 32 2 2 2 67 67 67 43 43 59 44 44 44 59 87 87 87 87 87
 87 62 62 62 62 32 32 32 32 2 67 67 67 43 43 44 44 44 44 44
 53 53 53 53 53 86 62 62 62 62 32 32 32 32 67 67 67 67 43 43
 44 44 44 44 44 53 53 53 53 86 86 86 86 62 62 32 32 32 67 67
 67 67 67 43 43 44 44 44 44 7 53 53 53 7 7 86 36 36 36 36
 36 36 36 67 67 67 67 43 43 43 43 44 7 7 7 7 7 7 7 7
 36 36 36 36 36 36 36 36 58 58 70 70 70 43 97 97 7 7 7 7
 7 7 7 7 7 36 36 36 36 36 36 36 36 58 58 70 70 70 70 97
 97 7 7 7 7 7 7 7 7 86 36 36 36 36 36 36 36 58 58 58
 70 70 70 56 56 97 7 7 7 7 7 7 7 7 7 36 36 36 36 36
 36 36 36 58 58 70 70 56 56 56 56 7 7 7 7 7 7 7 7 36
 36 36 36 36 36 36 36 36 36 36 70 70 56 56 56 56 7 7 7 7
 7 7 7 7 36 36 36 36 36 36 36 36 36 36 36 70 70 56 56 56
 81 81 81 7 7 7 23 23 23 23 36 36 36 36 36 36 36 36 36 36
 11 70 56 81 81 81 81 81 7 7 60 23 23 23 23 60 36 36 36 36
 36 36 36 36 36 11 70 56 81 81 81 55 55 55 60 60 60 60 60 60
 60 60 36 36 36 36 36 36 36 11 76 76 69 69 81 55 55 55 55 55
 60 60 60 60 60 60 60 60 34 34 34 36 36 36 11 76 76 69 69 100
 55 55 55 55 55 47 60 60 60 60 60 60 34 34 34 34 34 34 76 76
 76 76 69 69 100 100 55 55 55 55 47 60 60 60 60 60 60 34 34 34
 34 34 34 76 76 76 76 76 100 100 100 55 55 55 55 47 47 47 60 60
 60 60 34 34 34 34 34 2 76 76 76 76 76 100 100 100 100 100 100 55
 47 65 65 65 65 65 35 35 34 2 2 2 2 2 76 76 73 73 100 100
 100 100 100 100 100 65 65 65 65 65 65 35 35 35 2 2 2 2 2 2
 73 73 73 100 100 100 100 100 100 37 37 65 65 65 65 65 35 35 35 2
 2 2 2 2 2 2 73 80 80 80 100 100 100 37 37 37 65 65 65 65
 65 35 35 2 2 2 2 2 2 2 2 73 80 80 80 100 100 37 37 37
 37 87 87 65 65 65 35 2 2 2 2 2 2 2 2 2 2 80 80 80
 80 37 37 87 87 87 87 87 87 87 30 2 2 2 2 2 2 2 2 2
 2 2 80 80 80 80 87 87 87 87 87 87 87 87 87 30 2 2 2 2
 2 2 2 2 2 2 67 43 43 43 43 44 44 87 87 87 87 87 87 87
 30 62 62 62 62 2 2 2 2 2 67 67 43 43 43 43 44 44 44 44
 87 87 87 87 87 30 62 62 62 62 62 2 2 2 2 67 67 67 43 43
 44 44 44 44 44 44 53 87 87 87 30 62 62 62 62 62 62 32 2 67
 67 67 67 43 43 44 44 44 44 44 7 53 53 7 7 86 62 62 62 62
 62 62 32 67 67 67 67 67 43 43 43 44 44 44 7 7 7 7 7 7
 7 36 62 62 62 36 36 36 67 67 67 67 43 43 43 43 44 44 7 7
 7 7 7 7 7 7 36 36 36 36 36 36 36 36 67 67 67 43 43 43
 43 7 7 7 7 7 7 7 7 7 7 36 36 36 36 36 36 36 36 58
 70 70 70 43 43 7 7 7 7 7 7 7 7 7 7 36 36 36 36 36
 36 36 36 36 36 70 70 70 56 56 7 7 7 7 7 7 7 7 7 7
 36 36 36 36 36 36 36 36 36 36 70 70 56 56 56 56 7 7 7 7
 7 7 7 7 36 36 36 36 36 36 36 36 36 36 36 70 70 56 56 56
 56 7 7 7 7 7 7 7 23 23 36 36 36 36 36 36 36 36 36 36
 70 70 81 81 81 81 81 81 7 7 7 23 23 23 23 23 36 36 36 36
 36 36 36 36 36 81 81 81 81 81 81 81 81 7 7 60 23 23 23 23
 23 36 36 36 36 36 36 36 36 36 76 76 81 81 81 81 81 81 55 60
 60 60 60 60 60 60 60 36 36 36 36 36 36 36 36 76 76 76 81 81
 81 81 55 55 60 60 60 60 60 60 60 60 60 36 34 34 36 36 36 76
 76 76 76 76 81 55 55 55 55 47 47 47 60 60 60 60 60 60 34 34
 34 34 36 76 76 76 76 76 76 55 55 55 55 55 47 47 47 47 60 60
 60 60 60 34 34 34 34 76 76 76 76 76 76 76 100 100 55 55 55 47
 47 47 47 60 60 60 60 60 34 34 34 2 76 76 76 76 76 76 76 100
 100 100 100 100 47 47 47 47 60 60 60 35 35 2 2 2 2 2 76 76
 73 73 73 73 100 100 100 100 100 37 47 47 65 65 65 65 35 35 2 2
 2 2 2 2 76 73 73 73 73 100 100 100 100 37 37 37 37 65 65 65
 65 35 35 2 2 2 2 2 2 2 73 73 73 80 80 100 100 37 37 37
 37 37 65 65 65 65 35 35 2 2 2 2 2 2 2 2 73 80 80 80
 80 37 37 37 37 37 87 87 87 65 30 2 2 2 2 2 2 2 2 2
 2 73 80 80 80 80 37 37 37 37 87 87 87 87 30 30 30 2 2 2
 2 2 2 2 2 2 2 80 80 80 80 37 37 87 87 87 87 87 87 30
 30 30 62 62 2 2 2 2 2 2 43 43 43 43 43 43 44 44 87 87
 87 87 87 87 87 30 30 62 62 62 62 2 2 2 2 43 43 43 43 43
 43 44 44 44 44 87 87 87 87 87 30 62 62 62 62 62 62 2 2 2
 67 43 43 43 43 43 44 44 44 44 44 87 87 87 87 30 62 62 62 62
 62 62 2 2 67 67 67 43 43 43 43 44 44 44 44 44 7 7 7 7
 30 62 62 62 62 62 62 62 67 67 67 67 43 43 43 43 44 44 44 44
 7 7 7 7 7 7 36 62 62 62 62 62 62 67 67 43 43 43 43 43
 43 44 44 7 7 7 7 7 7 7 7 36 36 36 36 36 36 36 36 67
 43 43 43 43 43 43 7 7 7 7 7 7 7 7 7 7 36 36 36 36
 36 36 36 36 36 43 43 46 46 46 7 7 7 7 7 7 7 7 7 7
 36 36 36 36 36 36 36 36 36 36 70 70 46 46 46 7 7 7 7 7
 7 7 7 7 7 36 36 36 36 36 36 36 36 12 12 70 70 56 56 56
 7 7 7 7 7 7 7 7 7 7 36 36 36 36 36 36 36 36 12 12
 70 70 56 56 81 81 7 7 7 7 7 7 23 23 23 36 36 36 36 36
 36 36 36 12 12 81 81 81 81 81 81 81 81 7 7 7 23 23 23 23
 23 36 36 36 36 36 36 36 36 36 81 81 81 81 81 81 81 81 81 60
 60 23 23 23 23 23 60 36 36 36 36 36 36 36 36 76 81 81 81 81
 81 81 81 81 60 60 60 60 60 60 60 60 60 36 36 36 36 36 36 76
 76 76 76 81 81 81 81 81 81 60 60 60 60 60 60 60 60 60 36 36
 36 36 36 76 76 76 76 76 76 81 81 81 55 55 47 47 47 60 60 60
 60 60 60 60 34 34 36 76 76 76 76 76 76 76 76 55 55 55 55 47
 47 47 47 60 60 60 60 60 60 34 34 76 76 76 76 76 76 76 76 76
 100 55 55 55 47 47 47 47 60 60 60 60 60 34 34 34 76 76 76 76
 76 76 76 76 76 100 100 100 100 47 47 47 47 60 60 60 60 60 2 2
 2 2 76 76 76 76 73 76 76 76 100 100 100 37 37 47 47 47 60 60
 60 35 35 2 2 2 2 2 76 76 73 73 73 76 76 100 100 37 37 37
 37 37 37 65 65 65 35 35 2 2 2 2 2 2 76 73 73 73 73 76
 100 37 37 37 37 37 37 37 87 87 30 19 19 19 19 2 2 2 2 2
 73 73 73 73 80 80 37 37 37 37 37 87 87 87 87 30 19 19 19 19
 2 2 2 2 2 2 73 80 80 80 80 37 37 37 37 87 87 87 87 30
 30 30 2 2 2 2 2 2 2 2 2 2 43 43 43 43 37 37 37 87
 87 87 87 87 30 30 30 62 62 2 2 2 2 2 2 43 43 43 43 43
 43 44 44 87 87 87 87 87 87 87 30 30 62 62 62 62 62 2 2 2
 43 43 43 43 43 43 44 44 44 44 87 87 87 87 87 30 62 62 62 62
 62 62 2 2 2 43 43 43 43 43 43 44 44 44 44 44 87 87 87 87
 30 62 62 62 62 62 62 2 2 67 43 43 43 43 43 43 44 44 44 44
 44 7 87 7 7 62 62 62 62 62 62 62 62 67 67 43 43 43 43 43
 43 44 44 44 44 7 7 7 7 7 7 62 62 62 62 62 62 62 67 67
 43 43 43 43 43 43 44 44 7 7 7 7 7 7 7 7 36 36 36 36
 36 36 36 36 67 43 43 43 46 43 43 7 7 7 7 7 7 7 7 7
 36 36 36 36 36 36 36 36 36 36 31 31 46 46 46 43 7 7 7 7
 7 7 7 7 7 36 36 36 36 36 36 36 36 36 36 31 31 46 46 46
 46 7 7 7 7 7 7 7 7 7 36 36 36 36 36 36 36 36 12 12
 31 31 46 46 81 81 7 7 7 7 7 7 7 7 7 36 36 36 36 36
 36 36 12 12 12 31 81 81 81 81 81 81 7 7 7 7 7 23 23 23
 36 36 36 36 36 36 36 36 12 12 81 81 81 81 81 81 81 81 81 7
 7 23 23 23 23 23 36 36 36 36 36 36 36 36 36 81 81 81 81 81
 81 81 81 81 60 60 23 23 23 23 23 60 36 36 36 36 36 36 36 36
 76 81 81 81 81 81 81 81 81 60 60 60 60 60 60 60 60 60 36 36
 36 36 36 36 76 76 76 76 81 81 81 81 81 81 60 60 60 60 60 60
 60 60 60 60 36 36 93 93 76 76 76 76 76 76 81 81 81 81 47 47
 47 47 60 60 60 60 60 60 60 36 93 93 93 76 76 76 76 76 76 76
 76 55 55 55 47 47 47 47 60 60 60 60 60 60 34 93 93 93 76 76
 76 76 76 76 76 76 76 55 47 47 47 47 47 60 60 60 60 60 60 34
 76 76 76 76 76 76 76 76 76 76 76 100 100 47 47 47 47 47 60 60
 60 60 60 60 2 2 76 76 76 76 76 76 76 76 76 76 76 37 37 37
 47 47 47 60 60 60 60 35 19 19 2 2 76 76 76 76 73 76 76 76
 76 76 37 37 37 37 37 37 60 60 33 19 19 19 19 19 2 2 76 76
 73 73 73 76 76 76 37 37 37 37 37 37 37 87 87 33 19 19 19 19
 19 2 2 2 76 76 73 76 76 76 76 37 37 37 37 37 87 87 87 87
 33 19 19 19 19 19 2 2 2 2 2 73 76 76 76 76 37 37 37 37
 87 87 87 87 33 33 33 19 19 19 19 2 2 2 2 2 2 43 43 43
 43 78 78 37 87 87 87 87 87 33 33 33 62 62 62 62 2 2 2 2
 43 43 43 43 43 43 44 44 87 87 87 87 87 87 33 33 33 62 62 62
 62 62 2 2 2 43 43 43 43 43 43 44 44 44 44 87 87 87 87 87
 33 62 62 62 62 62 62 2 2 2 43 43 43 43 43 43 44 44 44 44
 44 87 87 87 87 33 62 62 62 62 62 62 62 17 17 43 43 43 43 43
 43 44 44 44 44 44 7 7 7 39 39 62 62 62 62 62 62 62 17 17
 43 43 43 43 43 43 44 44 44 44 7 7 7 7 39 39 39 62 62 62
 62 62 62 17 17 43 43 43 43 43 43 44 44 7 7 7 7 7 7 39
 39 36 36 36 36 36 36 36 36 17 31 31 31 43 43 43 7 7 7 7
 7 7 7 7 7 7 36 36 36 36 36 36 36 36 31 31 31 31 46 46
 43 7 7 7 7 7 7 7 7 7 36 36 36 36 36 36 36 36 36 31
 31 31 31 46 46 7 7 7 7 7 7 7 7 7 7 36 36 36 36 36
 36 36 36 12 12 31 31 31 81 81 81 81 7 7 7 7 7 7 7 7
 36 36 36 36 36 36 36 12 12 12 31 31 81 81 81 81 81 81 7 7
 7 7 7 23 23 23 36 36 36 36 36 36 36 12 12 81 81 81 81 81
 81 81 81 81 7 7 23 23 23 23 23 36 36 36 36 36 36 36 36 36
 81 81 81 81 81 81 81 81 81 7 60 60 23 23 23 23 60 36 36 36
 36 36 36 36 76 76 81 81 81 81 81 81 81 81 60 60 60 60 60 60
 60 60 60 36 36 36 93 93 93 76 76 76 76 81 81 81 81 81 81 60
 60 60 60 60 60 60 60 60 60 36 93 93 93 93 76 76 76 76 76 76
 76 81 81 47 47 47 60 60 60 60 60 60 60 60 93 93 93 93 93 76
 76 76 76 76 76 76 55 55 47 47 47 47 60 60 60 60 60 60 60 93
 93 93 93 93 76 76 76 76 76 76 76 76 55 47 47 47 47 47 60 60
 60 60 60 93 93 93 93 93 93 76 76 76 76 76 76 76 76 76 79 47
 47 47 47 60 60 60 60 60 19 93 93 93 76 76 76 76 76 76 76 76
 76 76 76 37 37 47 47 47 60 60 60 22 19 19 19 19 76 76 76 76
 76 76 76 76 76 76 76 37 37 37 37 37 87 60 33 33 19 19 19 19
 19 19 76 76 76 76 76 76 76 76 76 76 37 37 37 37 37 87 87 33
 33 19 19 19 19 19 19 76 76 76 76 76 76 76 76 76 78 37 37 37
 87 87 87 87 33 33 33 19 19 19 19 19 2 2 76 76 76 76 76 76
 78 78 78 78 87 87 87 87 87 33 33 33 19 19 19 19 19 2 2 2
 20 20 20 43 43 78 78 78 78 87 87 87 87 87 33 33 33 33 19 19
 19 19 2 2 2 17 43 43 43 43 78 78 78 78 87 87 87 87 87 33
 33 33 50 62 62 62 50 50 2 2 17 43 43 43 43 43 44 44 44 44
 87 87 87 87 33 33 33 62 62 62 62 62 62 2 17 17 17 43 43 43
 43 44 44 44 44 44 87 87 87 33 33 50 50 62 62 62 62 62 17 17
 17 17 43 43 43 43 44 44 44 44 44 7 7 39 39 39 50 50 50 62
 62 62 50 17 17 17 17 43 43 43 43 44 44 44 44 7 7 7 39 39
 39 39 50 50 62 62 50 50 17 17 17 17 43 43 43 43 44 44 7 7
 7 7 7 39 39 39 39 36 36 36 36 36 36 17 17 31 31 31 43 43
 43 7 7 7 7 7 7 7 39 39 39 39 36 36 36 36 36 36 31 31
 31 31 31 31 46 7 7 7 7 7 7 7 7 7 39 39 36 36 36 36
 36 36 36 31 31 31 31 31 31 31 7 7 7 7 7 7 7 7 7 7
 36 36 36 36 36 36 36 36 12 12 31 31 31 81 81 81 81 7 7 7
 7 7 7 7 36 36 36 36 36 36 36 36 36 12 12 31 31 81 81 81
 81 81 81 7 7 7 7 7 23 23 23 36 36 36 36 36 36 36 12 12
 45 45 45 45 81 81 81 81 81 61 61 23 23 23 23 23 41 36 36 36
 36 36 36 36 93 45 45 45 45 81 81 81 81 81 61 60 60 60 23 23
 23 60 36 36 36 36 36 93 93 93 76 45 45 45 81 81 81 81 81 81
 3 3 3 60 60 60 60 60 36 36 101 93 93 93 93 76 76 76 81 81
 81 81 81 81 3 3 3 3 60 60 60 60 60 60 93 93 93 93 93 93
 76 76 76 76 81 81 81 81 81 3 3 3 60 60 60 60 60 60 93 93
 93 93 93 93 93 76 76 76 76 76 76 76 81 47 47 47 60 60 60 60
 60 60 60 93 93 93 93 93 93 93 76 76 76 76 76 76 76 76 79 47
 47 47 47 60 60 60 60 22 93 93 93 93 93 93 93 76 76 76 76 76
 76 76 79 79 79 79 79 47 60 60 60 22 22 19 93 93 93 93 93 76
 76 76 76 76 76 76 76 79 79 79 79 79 79 60 60 22 22 22 19 19
 19 19 76 76 76 76 76 76 76 76 76 76 79 79 79 79 79 79 14 14
 22 22 19 19 19 19 19 76 76 76 76 76 76 76 76 76 78 78 78 78
 87 87 87 87 33 33 19 19 19 19 19 19 19 76 76 20 20 20 20 20
 78 78 78 78 78 87 87 87 87 33 33 19 19 19 19 19 19 2 20 20
 20 20 20 20 20 78 78 78 78 78 87 87 87 87 33 33 33 19 19 19
 19 19 2 20 20 20 20 20 20 78 78 78 78 78 78 87 87 87 87 33
 33 33 50 50 19 50 50 50 50 20 17 20 20 43 78 78 78 78 78 78
 87 87 87 87 33 33 33 50 50 50 50 50 50 50 20 17 17 17 43 43
 78 78 78 78 78 87 87 87 87 33 33 50 50 50 50 50 50 50 50 17
 17 17 17 43 43 43 44 44 44 44 44 87 87 39 39 50 50 50 50 50
 50 50 50 50 17 17 17 17 43 43 43 44 44 44 44 44 7 39 39 39
 39 50 50 50 50 50 50 50 50 17 17 17 17 43 43 43 44 44 44 44
 7 7 39 39 39 39 39 50 50 50 50 50 50 17 17 17 17 17 43 43
 48 48 48 48 7 7 7 7 39 39 39 39 99 99 99 99 50 50 17 17
 31 31 31 43 48 48 48 48 48 7 7 7 7 39 39 39 39 99 99 99
 99 99 99 31 31 31 31 31 31 48 48 48 48 48 7 7 7 7 39 39
 39 99 99 99 99 99 99 99 31 31 31 31 31 31 48 48 48 48 48 7
 7 7 7 7 41 41 36 99 99 99 99 99 36 12 12 31 31 31 81 81
 81 48 48 48 61 7 7 7 7 41 41 36 36 99 99 99 36 36 12 12
 31 31 81 81 81 81 81 81 61 61 61 7 7 7 41 41 36 36 36 36
 36 36 36 12 12 45 45 45 45 45 81 81 81 61 61 61 61 23 23 41
 41 41 41 41 41 36 36 93 93 88 45 45 45 45 45 81 81 81 61 61
 61 3 3 23 23 41 41 41 41 101 101 101 93 93 93 76 45 45 45 45
 81 81 81 81 3 3 3 3 3 60 60 60 41 41 101 101 101 93 93 93
 93 82 82 45 81 81 81 81 81 3 3 3 3 3 60 60 60 60 101 101
 101 101 93 93 93 93 82 82 76 81 81 81 81 81 3 3 3 3 3 60
 60 60 60 93 93 93 93 93 93 93 93 76 76 76 76 76 76 81 52 52
 3 3 3 60 60 60 60 22 93 93 93 93 93 93 93 76 76 76 76 76
 76 76 79 79 79 79 3 3 60 60 14 22 22 93 93 93 93 93 93 93
 76 76 76 76 76 76 76 79 79 79 79 79 79 60 14 22 22 22 22 93
 93 93 93 93 76 76 76 76 76 76 76 76 79 79 79 79 79 79 79 14
 22 22 22 22 19 93 93 76 76 76 76 76 76 76 76 76 79 79 79 79
 79 79 79 14 14 22 22 22 22 19 19 19 76 76 76 20 20 20 20 20
 20 79 79 79 79 79 79 79 79 14 22 22 22 19 19 19 19 20 20 20
 20 20 20 20 20 78 78 78 78 78 79 79 87 87 33 22 22 19 19 19
 19 19 19 20 20 20 20 20 20 20 78 78 78 78 78 87 87 87 87 33
 50 50 50 50 19 19 50 50 20 20 20 20 20 20 20 78 78 78 78 78
 87 87 87 87 33 50 50 50 50 50 50 50 50 50 20 20 20 20 20 78
 78 78 78 78 78 87 87 87 87 33 50 50 50 50 50 50 50 50 50 20
 17 17 17 17 78 78 78 78 78 78 87 87 10 10 50 50 50 50 50 50
 50 50 50 50 50 17 17 17 17 43 78 78 44 44 44 44 87 10 10 10
 50 50 50 50 50 50 50 50 50 17 17 17 17 17 43 43 1 1 1 44
 44 7 10 10 10 50 50 50 50 50 50 50 50 50 17 17 17 17 17 48
 48 1 1 1 44 7 7 10 39 39 39 50 50 50 50 50 50 50 50 17
 17 17 17 17 48 48 48 1 1 7 7 7 7 39 39 39 39 99 99 99
 99 99 50 17 17 31 4 4 4 48 48 48 48 48 48 7 7 7 39 39
 39 99 99 99 99 99 99 99 17 17 31 4 4 4 48 48 48 48 48 48
 61 7 7 7 41 41 99 99 99 99 99 99 99 99 31 31 4 4 4 48
 48 48 48 48 61 61 61 7 7 41 41 41 99 99 99 99 99 99 99 99
 31 4 4 81 81 48 48 48 61 61 61 61 61 41 41 41 41 41 99 99
 99 99 99 12 12 45 45 45 45 81 81 81 61 61 61 61 61 61 41 41
 41 41 41 41 99 99 99 36 12 12 88 45 45 45 45 81 81 61 61 61
 61 61 61 61 41 41 41 41 41 41 41 101 101 93 88 88 45 45 45 45
 81 81 61 61 61 61 61 61 61 41 41 41 41 41 101 101 101 101 93 93
 82 82 45 45 45 81 81 81 61 61 3 3 3 3 41 41 41 41 41 101
 101 101 101 93 93 82 82 82 82 81 81 81 81 81 3 3 3 3 3 60
 60 41 41 101 101 101 101 101 93 93 82 82 82 82 82 81 81 52 52 52
 3 3 3 3 60 60 60 41 101 101 101 101 93 93 93 82 82 82 82 82
 82 52 52 52 52 52 3 3 3 60 14 14 22 93 93 93 93 93 93 93
 82 82 82 82 76 76 76 79 79 52 79 3 3 14 14 14 14 22 22 93
 93 93 93 93 93 76 76 76 76 76 76 79 79 79 79 79 79 79 14 14
 14 14 22 22 22 93 93 93 93 93 76 76 76 76 76 76 79 79 79 79
 79 79 79 14 14 14 22 22 22 22 22 93 93 76 76 20 20 20 20 20
 28 28 79 79 79 79 79 79 14 14 22 22 22 22 22 22 93 20 20 20
 20 20 20 20 20 28 28 79 79 79 79 79 79 14 14 14 22 22 22 22
 19 50 20 20 20 20 20 20 20 20 28 28 28 28 79 79 79 79 14 14
 14 50 50 50 50 50 50 50 20 20 20 20 20 20 20 28 78 78 78 78
 28 28 28 87 50 50 50 50 50 50 50 50 50 20 20 20 20 20 20 20
 78 78 78 78 78 28 28 28 87 50 50 50 50 50 50 50 50 50 50 20
 20 20 20 20 78 78 78 78 78 78 78 87 10 10 50 50 50 50 50 50
 50 50 50 50 20 17 17 17 17 78 78 78 78 78 78 78 10 10 10 10
 50 50 50 50 50 50 50 50 50 50 17 17 17 17 17 78 78 78 78 78
 10 10 10 10 10 50 50 50 50 50 50 50 50 50 17 17 17 17 17 17
 1 1 1 1 1 10 10 10 10 10 10 50 50 50 50 50 50 50 50 17
 17 17 17 17 48 1 1 1 1 1 10 10 10 10 10 10 50 50 50 50
 50 50 50 50 17 17 17 17 17 48 48 1 1 1 1 61 10 10 10 10
 39 99 99 99 99 99 99 99 17 17 17 4 4 4 48 48 48 48 48 48
 61 61 61 61 99 99 99 99 99 99 99 99 99 99 17 4 4 4 4 48
 48 48 48 48 48 61 61 61 61 41 41 99 99 99 99 99 99 99 99 99
 4 4 4 4 48 48 48 48 48 61 61 61 61 61 41 41 41 99 99 99
 99 99 99 99 99 96 4 4 48 48 48 48 48 61 61 61 61 61 41 41
 41 41 41 99 99 99 99 99 99 96 88 45 45 45 81 48 48 61 61 61
 61 61 61 41 41 41 41 41 41 99 99 99 99 96 96 88 88 88 45 68
 68 61 61 61 61 61 61 61 41 41 41 41 41 41 41 41 41 101 88 88
 88 88 88 45 68 68 68 61 61 61 61 61 61 41 41 41 41 41 41 41
 101 101 101 88 88 88 88 88 88 68 68 68 61 61 61 61 61 3 41 41
 41 41 41 41 101 101 101 101 101 88 82 82 82 82 82 68 68 52 52 52
 52 3 3 3 41 41 41 41 101 101 101 101 101 101 82 82 82 82 82 82
 82 52 52 52 52 52 52 3 3 14 14 41 41 101 101 101 101 101 93 82
 82 82 82 82 82 82 52 52 52 52 52 52 52 14 14 14 14 14 14 101
 101 101 93 93 82 82 82 82 82 82 82 52 52 52 52 52 52 52 14 14
 14 14 14 14 14 101 93 93 93 82 82 82 82 82 82 82 79 79 79 79
 79 79 79 14 14 14 14 14 14 14 93 93 93 93 82 20 20 20 76 76
 28 28 79 79 79 79 79 79 14 14 14 22 22 22 22 22 93 93 20 20
 20 20 20 20 20 28 28 79 79 79 79 79 79 14 14 14 22 22 22 22
 22 22 20 20 20 20 20 20 20 20 28 28 28 79 79 79 79 79 14 14
 14 22 22 22 22 22 50 20 20 20 20 20 20 20 20 28 28 28 28 28
 79 79 79 14 14 14 14 14 50 50 50 50 50 20 20 20 20 20 20 20