# vtk DataFile Version 2.0
Data set from ImportExport Version 6.5.141.ec284b7a5
ASCII

DATASET RECTILINEAR_GRID
DIMENSIONS 26 26 26
X_COORDINATES 26 float
-3.000000 3.000000 9.000000 15.000000 21.000000 27.000000 33.000000 39.000000 45.000000 51.000000 57.000000 63.000000 69.000000 75.000000 81.000000 87.000000 93.000000 99.000000 105.000000 111.000000 117.000000 
123.000000 129.000000 135.000000 141.000000 147.000000 
Y_COORDINATES 26 float
-3.000000 3.000000 9.000000 15.000000 21.000000 27.000000 33.000000 39.000000 45.000000 51.000000 57.000000 63.000000 69.000000 75.000000 81.000000 87.000000 93.000000 99.000000 105.000000 111.000000 117.000000 
123.000000 129.000000 135.000000 141.000000 147.000000 
Z_COORDINATES 26 float
-3.000000 3.000000 9.000000 15.000000 21.000000 27.000000 33.000000 39.000000 45.000000 51.000000 57.000000 63.000000 69.000000 75.000000 81.000000 87.000000 93.000000 99.000000 105.000000 111.000000 117.000000 
123.000000 129.000000 135.000000 141.000000 147.000000 
CELL_DATA 15625
SCALARS FeatureIds int 1
LOOKUP_TABLE default
 26 26 26 26 42 42 42 42 42 42 42 42 64 64 64 64 64 64 75 75
 75 75 75 75 26 26 26 26 26 42 42 42 42 42 42 42 42 42 64 64
 64 64 64 75 75 75 75 75 75 26 26 26 26 26 42 42 42 42 42 42
 42 42 42 64 64 64 64 64 75 75 75 75 75 75 26 26 26 26 26 42
 42 42 42 42 42 42 42 42 95 95 95 95 95 75 75 75 75 75 75 26
 26 26 26 30 42 42 42 42 42 89 89 89 89 95 95 95 95 95 54 54
 54 54 54 54 54 30 30 30 30 89 89 89 89 89 89 89 89 89 4 86
 86 86 86 54 54 54 54 54 54 54 30 30 30 89 89 89 89 89 89 89
 89 89 4 4 4 86 86 86 54 54 54 54 54 54 74 11 11 11 89 89
 89 89 89 89 89 89 89 4 4 4 86 86 86 86 54 54 54 54 54 74
 11 11 59 59 59 89 89 89 89 89 89 89 36 36 86 86 86 86 86 54
 54 54 54 54 74 11 11 59 59 59 59 59 89 89 89 89 89 36 36 86
 86 86 86 86 74 54 54 54 54 74 11 11 59 59 59 59 59 59 89 89
 89 36 36 36 86 86 86 86 86 72 74 54 54 54 93 59 59 59 59 59
 59 59 59 59 59 59 36 36 86 86 86 86 72 72 72 72 54 93 93 93
 59 59 59 59 59 59 59 59 59 59 59 59 86 86 86 72 72 72 72 72
 72 72 93 93 93 59 59 59 59 59 59 59 52 52 59 59 59 86 86 72
 72 72 72 72 72 72 93 93 93 93 59 59 59 59 59 59 59 52 52 59
 59 59 86 72 72 72 72 72 72 72 72 71 93 93 93 59 59 59 59 59
 59 59 59 59 59 59 25 25 72 72 72 72 72 72 72 71 71 73 73 73
 16 16 16 59 59 59 59 59 59 25 25 25 25 25 72 72 72 72 72 72
 71 71 73 73 73 16 16 16 58 59 59 59 59 25 25 25 25 25 25 25
 72 72 72 72 72 71 71 73 73 73 16 16 58 58 58 58 59 59 25 25
 25 25 25 25 25 25 13 13 13 13 13 71 73 73 73 16 58 58 58 58
 58 58 25 25 25 25 25 25 25 25 25 13 13 13 13 13 13 73 40 40
 58 58 58 58 58 58 58 25 25 25 25 25 25 25 25 25 13 13 13 13
 75 75 75 40 40 40 58 58 58 58 58 58 25 25 25 33 33 33 25 25
 25 13 13 75 75 75 75 75 75 40 40 40 58 58 58 42 42 42 25 25
 33 33 33 25 25 25 13 75 75 75 75 75 75 75 40 40 40 40 40 42
 42 42 42 42 87 33 33 33 25 25 25 75 75 75 75 75 75 75 75 75
 40 40 40 42 42 42 42 42 42 42 33 33 33 25 25 75 75 75 75 75
 75 75 75 75 75 26 26 26 26 42 42 42 42 42 42 87 87 87 64 64
 49 49 49 49 75 75 75 75 75 26 26 26 26 26 42 42 42 42 42 42
 42 42 42 64 64 49 49 49 49 75 75 75 32 32 26 26 26 26 26 42
 42 42 42 42 42 42 42 42 64 64 49 49 49 49 75 32 32 32 32 26
 26 26 26 26 42 42 42 42 42 42 42 42 42 95 95 95 49 49 49 75
 32 32 32 32 26 30 30 30 30 42 42 42 42 42 89 89 89 89 4 95
 95 95 49 49 54 54 54 54 54 54 30 30 30 30 89 89 89 89 89 89
 89 89 89 4 4 86 86 86 54 54 54 54 54 54 54 30 30 30 89 89
 89 89 89 89 89 89 89 4 4 4 86 86 86 54 54 54 54 54 54 54
 92 11 30 89 89 89 89 89 89 89 89 89 4 4 4 86 86 86 54 54
 54 54 54 54 54 11 11 59 59 89 89 89 89 89 89 89 89 36 36 36
 86 86 86 54 54 54 54 54 54 54 11 11 59 59 59 89 89 89 89 89
 89 89 36 36 36 86 86 86 86 54 54 54 54 54 54 11 11 59 59 59
 59 59 89 89 89 89 36 36 36 36 86 86 72 72 72 54 54 54 54 93
 59 59 59 59 59 59 59 59 59 59 89 36 36 36 86 86 72 72 72 72
 72 54 93 93 93 93 59 59 59 59 59 52 52 52 52 52 86 86 86 72
 72 72 72 72 72 72 93 93 93 93 93 59 59 59 59 59 52 52 52 52
 52 52 86 86 72 72 72 72 72 72 72 93 93 93 93 93 59 59 59 59
 59 52 52 52 52 52 25 86 72 72 72 72 72 72 72 72 93 93 93 93
 73 16 59 59 59 59 59 59 59 59 25 25 25 72 72 72 72 72 72 72
 72 73 73 73 73 16 16 16 59 59 59 59 59 59 25 25 25 25 25 72
 72 72 72 72 72 72 73 73 73 73 16 16 16 58 58 59 59 59 25 25
 25 25 25 25 25 13 13 13 13 13 13 73 73 73 73 16 16 58 58 58
 58 59 25 25 25 25 25 25 25 25 13 13 13 13 13 13 13 73 73 73
 40 16 58 58 58 58 58 25 25 25 25 25 25 25 25 13 13 13 13 13
 13 13 40 40 40 40 40 58 58 58 58 58 25 25 25 25 25 25 25 25
 13 13 13 13 13 13 13 40 40 40 40 40 40 58 58 58 42 25 25 25
 33 33 33 25 25 13 13 13 13 75 75 75 75 40 40 40 40 40 40 40
 42 42 42 87 87 33 33 33 33 25 13 13 13 13 75 75 75 75 40 40
 40 40 40 40 42 42 42 42 87 87 87 33 33 33 25 13 13 75 75 75
 75 75 75 75 40 40 40 40 42 42 42 42 42 42 87 87 87 33 33 25
 49 49 75 75 75 75 75 75 75 40 26 26 26 26 42 42 42 42 42 87
 87 87 87 87 49 49 49 49 49 49 32 32 32 32 26 26 26 26 26 42
 42 42 42 42 42 42 87 87 49 49 49 49 49 49 49 32 32 32 32 26
 26 26 26 30 42 42 42 42 42 42 42 42 42 49 49 49 49 49 49 49
 32 32 32 32 26 30 30 30 30 30 42 42 42 42 3 3 3 3 49 49
 49 49 49 49 49 32 32 32 32 30 30 30 30 30 30 42 42 42 42 3
 89 89 89 4 49 49 49 49 49 54 54 54 54 54 30 30 30 30 30 30
 89 89 89 89 89 89 89 89 4 4 49 86 86 54 54 54 54 54 54 54
 30 30 30 30 89 89 89 89 89 89 89 89 4 4 4 4 86 86 54 54
 54 54 54 54 54 92 30 30 30 89 89 89 89 89 89 89 89 4 4 4
 86 86 86 54 54 54 54 54 54 54 92 11 30 59 89 89 89 89 89 89
 89 89 36 36 36 86 86 86 54 54 54 54 54 54 54 11 11 59 59 59
 89 89 89 89 89 89 89 36 36 36 86 86 86 86 54 54 54 54 54 54
 11 11 59 59 59 59 59 51 89 89 89 36 36 36 36 86 86 72 72 72
 54 54 54 54 54 59 59 59 59 59 59 59 51 51 89 89 36 36 36 36
 72 72 72 72 72 72 54 93 93 93 93 55 59 59 59 59 52 52 52 52
 52 36 36 86 72 72 72 72 72 72 72 72 93 93 93 93 59 59 59 59
 59 52 52 52 52 52 52 36 72 72 72 72 72 72 72 72 93 93 93 93
 93 59 59 59 59 59 52 52 52 52 52 25 65 65 72 72 72 72 72 72
 72 72 93 93 93 73 16 59 59 59 59 59 59 59 25 25 25 65 65 72
 72 72 72 72 72 72 73 73 73 73 16 16 16 59 59 59 59 59 25 25
 25 25 25 25 72 72 72 72 72 72 72 73 73 73 73 16 16 16 58 58
 59 59 25 25 25 25 25 25 25 25 13 13 13 13 13 13 13 73 73 73
 16 16 58 58 58 58 58 25 25 25 25 25 25 25 25 13 13 13 13 13
 13 13 13 40 40 40 40 58 58 58 58 58 25 25 25 25 25 25 25 25
 13 13 13 13 13 13 13 40 40 40 40 40 40 58 58 58 58 25 25 25
 25 25 25 25 25 13 13 13 13 13 13 13 40 40 40 40 40 40 40 40
 40 87 87 87 87 33 33 33 25 25 13 13 13 13 13 13 13 40 40 40
 40 40 40 40 40 42 42 87 87 87 87 33 33 33 25 13 13 13 13 13
 13 75 40 40 40 40 40 40 40 40 42 42 87 87 87 87 87 33 33 25
 13 13 13 13 75 75 75 75 40 40 40 40 40 40 42 42 42 42 87 87
 87 87 33 78 78 49 49 49 49 75 32 32 32 40 40 40 40 40 40 42
 42 42 42 42 87 87 87 78 78 49 49 49 49 49 49 32 32 32 32 32
 30 30 30 30 42 42 42 42 42 42 42 87 78 78 49 49 49 49 49 49
 32 32 32 32 30 30 30 30 30 30 42 42 42 42 3 3 3 78 78 49
 49 49 49 49 49 32 32 32 32 30 30 30 30 30 30 42 42 42 3 3
 3 3 3 49 49 49 49 49 49 49 32 32 32 32 30 30 30 30 30 30
 30 42 42 3 3 3 89 89 4 49 49 49 49 92 92 92 92 92 92 30
 30 30 30 30 30 89 89 89 89 89 89 89 89 4 4 49 49 92 92 92
 92 92 92 92 92 30 30 30 30 30 89 89 89 89 89 89 89 89 4 4
 4 86 92 92 92 92 92 92 92 92 92 30 30 30 89 89 89 89 89 89
 89 89 89 4 4 86 86 92 92 92 92 92 92 92 92 92 92 30 30 89
 89 89 89 89 89 89 89 89 36 36 86 86 92 92 92 92 92 92 92 92
 92 92 55 55 55 89 89 89 89 89 89 89 36 36 36 86 86 86 92 92
 92 92 92 92 92 55 55 55 55 55 51 51 51 51 89 89 89 36 36 36
 86 72 72 72 72 92 92 92 92 92 55 55 55 55 55 55 51 51 51 89
 89 89 36 36 36 72 72 72 72 72 72 92 92 93 93 55 55 55 55 55
 55 51 51 51 51 89 89 36 72 72 72 72 72 72 72 72 72 93 93 93
 55 55 55 55 55 55 52 52 52 52 52 52 72 72 72 72 72 72 72 72
 72 72 93 93 93 55 55 55 55 55 55 52 52 52 52 25 65 65 65 72
 72 72 72 72 72 72 72 93 93 93 39 55 55 55 55 55 59 59 59 25
 25 65 65 65 65 72 72 72 72 72 72 73 73 73 73 16 16 16 55 55
 59 59 59 25 25 25 25 25 65 13 13 13 13 13 13 13 13 73 73 73
 40 16 40 58 58 59 59 25 25 25 25 25 25 25 13 13 13 13 13 13
 13 13 73 40 40 40 40 40 58 58 58 58 25 25 25 25 25 25 25 13
 13 13 13 13 13 13 13 13 40 40 40 40 40 40 58 58 58 25 25 25
 25 25 25 25 13 13 13 13 13 13 13 13 40 40 40 40 40 40 40 40
 40 40 25 25 25 25 25 25 25 13 13 13 13 13 13 13 13 40 40 40
 40 40 40 40 40 40 40 87 87 87 87 25 25 25 13 13 13 13 13 13
 13 13 40 40 40 40 40 40 40 40 40 42 87 87 87 87 87 78 78 13
 13 13 13 13 13 13 13 40 40 40 40 40 40 40 40 42 42 87 87 87
 87 87 78 78 78 13 13 13 13 13 13 40 40 40 40 40 40 40 40 40
 42 42 42 87 87 87 87 78 78 78 49 49 49 49 49 32 32 32 40 40
 40 40 40 40 40 42 42 42 87 87 87 78 78 78 78 49 49 49 49 49
 32 32 32 32 40 30 30 30 30 30 42 42 42 42 42 87 78 78 78 78
 49 49 49 49 49 32 32 32 32 30 30 30 30 30 30 42 42 42 42 3
 3 3 78 78 78 49 49 49 49 49 32 32 32 30 30 30 30 30 30 30
 30 42 42 3 3 3 3 78 78 49 49 49 49 49 49 92 32 32 30 30
 30 30 30 30 30 30 14 42 3 3 3 3 3 4 49 49 49 49 92 92
 92 92 92 92 30 30 30 30 30 30 14 89 89 89 3 89 89 89 4 4
 49 92 92 92 92 92 92 92 92 30 30 30 30 30 14 14 89 89 89 89
 89 89 89 4 4 4 92 92 92 92 92 92 92 92 92 92 30 30 30 14
 14 89 89 89 89 89 89 89 4 4 4 92 92 92 92 92 92 92 92 92
 92 92 30 55 55 89 89 89 89 89 89 89 89 36 36 86 92 92 92 92
 92 92 92 92 92 92 92 55 55 55 55 89 89 89 99 99 99 99 36 36
 86 92 92 92 92 92 92 92 92 92 55 55 55 55 55 55 51 51 99 99
 99 99 99 36 36 86 72 72 92 92 92 92 92 92 92 55 55 55 55 55
 55 51 51 51 99 99 99 99 36 36 72 72 72 72 72 92 92 92 92 92
 55 55 55 55 55 55 55 51 51 99 99 99 99 72 72 72 72 72 72 72
 72 92 92 93 93 55 55 55 55 55 55 55 52 52 99 99 99 99 72 72
 72 72 72 72 72 72 61 93 93 93 39 55 55 55 55 55 55 55 52 52
 25 65 65 65 72 72 72 72 72 72 61 48 48 93 93 39 39 55 55 55
 55 55 55 59 25 25 65 65 65 65 13 13 13 13 13 13 48 48 48 48
 39 39 55 55 55 55 55 55 25 25 25 25 25 65 13 13 13 13 13 13
 13 13 48 48 40 40 40 40 40 40 40 17 25 25 25 25 25 25 13 13
 13 13 13 13 13 13 13 40 40 40 40 40 40 40 40 40 40 25 25 25
 25 25 25 13 13 13 13 13 13 13 13 13 40 40 40 40 40 40 40 40
 40 40 25 25 25 25 25 25 13 13 13 13 13 13 13 13 13 40 40 40
 40 40 40 40 40 40 40 25 87 87 25 25 25 13 13 13 13 13 13 13
 13 13 40 40 40 40 40 40 40 40 40 40 87 87 87 87 78 78 78 13
 13 13 13 13 13 13 13 40 40 40 40 40 40 40 40 40 40 87 87 87
 87 78 78 78 78 13 13 13 13 13 13 13 40 40 40 40 40 40 40 40
 40 42 87 87 87 87 87 78 78 78 78 13 13 13 13 40 40 40 40 40
 40 40 40 40 40 40 42 87 87 87 87 78 78 78 78 78 49 49 49 49
 32 32 32 40 40 40 40 40 40 40 82 42 42 87 87 78 78 78 78 78
 78 49 49 49 49 32 32 43 43 43 30 30 30 30 30 82 42 42 42 87
 78 78 78 78 78 49 49 49 49 49 32 32 43 43 43 30 30 30 30 30
 30 42 42 42 3 3 78 78 78 78 49 49 49 49 49 32 32 43 43 30
 30 30 30 30 30 14 14 14 3 3 3 3 78 78 78 49 49 49 49 92
 92 92 92 30 30 30 30 30 30 30 14 14 14 3 3 3 3 78 78 78
 49 49 92 92 92 92 92 92 92 30 30 30 30 30 14 14 14 14 99 99
 99 99 99 4 4 45 45 92 92 92 92 92 92 92 30 30 30 30 30 14
 14 14 14 99 99 99 99 99 4 45 45 45 92 92 92 92 92 92 92 92
 92 30 30 30 14 14 14 99 99 99 99 99 99 99 45 45 45 45 92 92
 92 92 92 92 92 92 92 21 21 14 14 99 99 99 99 99 99 99 99 99
 45 45 45 92 92 92 92 92 92 92 92 21 55 55 55 55 99 99 99 99
 99 99 99 99 99 45 45 45 92 92 92 92 92 92 92 21 55 55 55 55
 55 99 99 99 99 99 99 99 99 62 86 61 92 92 92 92 92 92 92 92
 55 55 55 55 55 55 99 99 99 99 99 99 99 99 62 72 61 61 61 61
 61 92 92 92 92 55 55 55 55 55 55 55 99 99 99 99 99 99 62 62
 72 61 61 61 61 61 61 61 61 61 55 55 55 55 55 55 55 55 99 99
 99 99 99 62 72 72 61 61 61 61 61 61 61 48 48 39 39 55 55 55
 55 55 55 99 99 99 99 99 65 72 72 61 61 61 61 61 48 48 48 48
 39 39 39 55 55 55 55 55 99 99 7 7 7 13 13 13 13 13 13 61
 48 48 48 48 48 39 39 39 55 55 55 55 55 12 12 7 7 7 13 13
 13 13 13 13 13 13 48 48 48 48 40 40 40 40 55 17 17 17 12 12
 7 7 7 13 13 13 13 13 13 13 13 13 48 40 40 40 40 40 40 40
 40 17 17 25 25 25 7 25 13 13 13 13 13 13 13 13 13 40 40 40
 40 40 40 40 40 40 40 25 25 25 78 78 78 13 13 13 13 13 13 13
 13 13 40 40 40 40 40 40 40 40 40 40 17 87 87 78 78 78 78 13
 13 13 13 13 13 13 13 40 40 40 40 40 40 40 40 40 40 87 87 87
 78 78 78 78 78 13 13 13 13 13 13 13 40 40 40 40 40 40 40 40
 40 40 87 87 87 87 78 78 78 78 13 13 13 13 13 13 13 40 40 40
 40 40 40 40 40 40 40 87 87 87 87 78 78 78 78 78 13 13 13 13
 40 40 40 40 40 40 40 40 40 40 40 42 87 87 87 87 78 78 78 78
 78 49 49 49 49 32 32 40 40 40 43 40 40 40 82 82 82 83 87 87
 78 78 78 78 78 78 78 49 49 49 32 43 43 43 43 30 30 30 30 82
 82 82 82 42 87 78 78 78 78 78 78 78 49 49 49 32 43 43 43 43
 30 30 30 30 30 82 82 98 98 3 78 78 78 78 78 78 49 49 49 49
 32 43 43 43 43 30 30 30 30 14 14 14 14 14 3 3 78 78 78 78
 78 49 49 49 92 92 92 43 43 30 30 30 30 30 14 14 14 14 14 99
 99 99 78 78 78 45 45 92 92 92 92 92 92 92 30 30 30 30 14 14
 14 14 14 99 99 99 99 99 22 22 45 45 45 92 92 92 92 92 92 30
 30 30 30 14 14 14 14 14 99 99 99 99 99 99 45 45 45 45 92 92
 92 92 92 92 92 92 30 30 14 14 14 14 99 99 99 99 99 99 99 45
 45 45 45 45 92 92 92 92 92 92 21 21 21 21 14 99 99 99 99 99
 99 99 99 99 99 45 45 45 45 92 92 92 92 92 92 21 21 21 21 55
 99 99 99 99 99 99 99 99 99 99 45 45 45 45 92 92 92 92 92 92
 21 21 21 55 55 99 99 99 99 99 99 99 99 62 62 61 61 61 61 92
 92 92 92 92 92 55 55 55 55 55 55 99 99 99 99 99 99 99 62 62
 61 61 61 61 61 61 61 61 61 92 55 55 55 55 55 55 99 99 99 99
 99 99 99 62 62 61 61 61 61 61 61 61 61 61 61 55 55 55 55 55
 55 55 99 99 99 99 99 99 62 61 61 61 61 61 61 61 61 61 61 61
 55 55 55 55 55 55 55 99 99 99 99 99 99 62 61 61 61 61 61 61
 61 48 48 48 48 39 39 55 55 55 55 55 55 99 99 7 7 7 13 13
 13 13 61 61 61 48 48 48 48 48 39 39 55 55 55 55 17 17 12 12
 7 7 7 13 13 13 13 13 13 13 48 48 48 48 48 40 40 40 40 17
 17 17 17 12 12 7 7 7 13 13 13 13 13 13 13 13 48 48 48 40
 40 40 40 40 17 17 17 17 12 12 7 7 7 13 13 13 13 13 13 13
 13 13 40 40 40 40 40 40 40 40 17 17 17 17 44 44 44 44 13 13
 13 13 13 13 13 13 13 40 40 40 40 40 40 40 40 17 17 17 17 78
 78 78 78 78 13 13 13 13 13 13 13 13 40 40 40 40 40 40 40 40
 40 40 17 87 87 78 78 78 78 78 13 13 13 13 13 13 13 40 40 40
 40 40 40 40 40 40 40 87 87 87 78 78 78 78 78 78 13 13 13 13
 13 13 40 40 40 40 40 40 40 40 40 40 87 87 87 78 78 78 78 78
 78 78 13 13 13 13 40 40 40 40 40 40 40 40 40 40 83 87 87 87
 78 78 78 78 78 78 78 49 49 13 43 43 43 43 40 43 40 40 40 82
 82 83 83 83 83 78 78 78 78 78 78 78 78 49 49 43 43 43 43 43
 43 30 30 30 82 82 82 98 98 83 78 78 78 78 78 78 78 78 49 49
 43 43 43 43 43 30 30 30 30 82 82 82 98 98 83 78 78 78 78 78
 78 78 78 49 43 43 43 43 43 43 30 30 30 30 14 14 14 14 14 14
 99 78 78 78 78 78 49 45 92 92 92 43 43 43 30 30 30 30 14 14
 14 14 14 14 99 99 99 78 22 22 22 45 45 92 92 92 92 92 30 30
 30 30 30 14 14 14 14 14 99 99 99 99 99 22 22 45 45 45 92 92
 92 92 92 92 30 30 30 30 14 14 14 14 14 99 99 99 99 99 99 45
 45 45 45 45 92 92 92 92 92 92 92 21 14 14 14 14 14 99 99 99
 99 99 99 99 45 45 45 45 45 92 92 92 92 92 92 21 21 21 14 14
 99 99 99 99 99 99 99 99 99 99 45 45 45 45 92 92 92 92 92 92
 21 21 21 21 99 99 99 99 99 99 99 99 99 99 99 45 45 45 45 92
 92 92 92 92 92 21 21 21 55 99 99 99 99 99 99 99 99 99 62 62
 61 61 61 61 61 61 92 92 92 92 21 21 55 55 55 99 99 99 99 99
 99 99 62 62 62 61 61 61 61 61 61 61 61 61 61 55 55 55 55 55
 55 99 99 99 99 99 99 99 62 62 61 61 61 61 61 61 61 61 61 61
 55 55 55 55 55 55 99 99 99 99 99 99 99 62 61 61 61 61 61 61
 61 61 61 61 61 55 55 55 55 55 55 55 99 99 99 99 99 99 61 61
 61 61 61 61 61 61 61 48 48 48 39 55 55 55 55 55 55 99 99 99
 7 7 7 7 61 61 61 61 61 61 61 48 48 48 48 40 39 55 55 55
 17 17 12 12 12 7 7 7 7 13 13 13 13 61 61 61 48 48 48 48
 40 40 40 40 17 17 17 17 12 12 7 7 7 7 13 13 13 13 13 13
 13 48 48 48 40 40 40 40 40 17 17 17 17 12 12 7 7 7 44 13
 13 13 13 13 13 13 13 48 40 40 40 40 40 40 17 17 17 17 17 44
 44 44 44 44 13 13 13 13 13 13 13 13 40 40 40 40 40 40 40 17
 17 17 17 17 44 44 44 78 78 78 13 13 13 13 13 13 13 40 40 40
 40 40 40 40 40 17 17 17 83 57 57 57 78 78 78 78 13 13 13 13
 13 13 40 40 40 40 40 40 40 40 40 83 83 83 57 57 78 78 78 78
 78 13 13 13 13 13 13 40 40 40 40 40 40 40 40 83 83 83 83 83
 78 78 78 78 78 78 78 13 13 13 13 43 40 40 40 40 40 40 40 40
 83 83 83 83 83 78 78 78 78 78 78 78 49 13 13 43 43 43 43 43
 43 40 40 83 83 83 83 98 83 83 83 78 78 78 78 78 78 78 78 43
 43 43 43 43 43 43 30 30 30 82 82 98 98 98 83 83 78 78 78 78
 78 78 78 78 43 43 43 43 43 43 30 30 30 30 82 82 98 98 98 83
 83 78 78 78 78 78 78 78 67 67 43 43 43 43 43 30 30 30 30 14
 14 14 98 98 14 99 78 78 78 78 78 22 45 67 67 67 43 43 43 43
 30 30 30 14 14 14 14 14 14 99 99 99 22 22 22 22 22 45 45 92
 92 92 92 30 30 30 30 30 14 14 14 14 14 99 99 99 99 22 22 22
 22 22 45 45 92 92 92 92 92 30 30 30 14 14 14 14 14 99 99 99
 99 99 99 22 22 22 45 45 45 45 92 92 92 92 92 21 21 21 14 14
 14 99 99 99 99 99 99 99 22 22 45 45 45 45 45 92 92 92 92 92
 21 21 21 21 14 99 99 99 99 99 99 99 99 99 22 45 45 45 45 45
 92 92 92 92 92 21 21 21 21 99 99 99 99 99 99 99 99 99 99 22
 45 45 45 45 61 61 92 92 92 92 21 21 21 21 99 99 99 99 99 99
 99 99 99 99 62 61 61 61 61 61 61 61 61 61 61 21 21 85 85 85
 99 99 99 99 99 99 99 99 62 62 61 61 61 61 61 61 61 61 61 61
 85 85 85 85 85 99 99 99 99 99 99 99 99 62 61 61 61 61 61 61
 61 61 61 61 61 85 55 55 85 85 99 99 99 99 99 99 99 99 62 61
 61 61 61 61 61 61 61 61 61 61 55 55 55 85 85 85 99 99 99 99
 99 99 99 61 61 61 61 61 61 61 61 61 61 61 61 39 55 1 1 1
 85 85 99 99 12 7 7 7 61 61 61 61 61 61 61 61 61 61 61 61
 40 1 1 1 1 1 17 17 12 12 7 7 7 44 13 13 61 61 61 61
 61 61 61 61 61 40 40 1 1 1 17 17 17 12 12 7 7 44 44 13
 13 13 13 13 61 61 61 61 61 40 40 40 40 1 17 17 17 17 44 44
 44 44 44 44 44 13 13 13 13 13 13 61 61 40 40 40 40 40 40 17
 17 17 17 44 44 44 44 44 44 44 13 13 13 13 13 13 13 40 40 40
 40 40 40 40 17 17 17 17 44 44 44 44 44 44 78 13 13 13 13 13
 76 76 40 40 40 40 40 40 40 40 17 17 83 83 57 57 57 57 78 78
 78 13 13 76 76 76 76 40 40 40 40 40 40 40 40 83 83 83 83 57
 57 57 78 78 78 78 78 76 76 76 76 76 40 40 40 40 40 40 40 83
 83 83 83 83 83 57 57 78 78 78 78 78 76 76 76 76 76 40 40 40
 40 40 40 40 83 83 83 83 83 83 83 78 78 78 78 78 78 76 76 76
 76 43 43 43 43 43 40 83 83 83 83 83 98 98 83 83 78 78 78 78
 78 78 78 78 43 43 43 43 43 43 43 30 30 83 83 83 98 98 98 83
 83 78 78 78 78 78 78 78 78 43 43 43 43 43 43 30 30 30 83 83
 83 98 98 98 83 83 78 78 78 78 78 78 78 67 67 67 43 43 43 43
 30 30 30 28 14 14 98 98 98 83 83 78 22 22 22 22 22 22 67 67
 67 67 67 43 43 30 30 30 14 14 14 14 14 99 99 99 99 22 22 22
 22 22 22 67 67 67 67 67 67 67 30 30 28 14 14 14 14 14 99 99
 99 99 22 22 22 22 22 22 45 67 67 67 67 67 67 67 30 14 14 14
 14 14 99 99 99 99 99 22 22 22 22 22 45 45 67 67 67 67 67 67
 21 21 21 14 14 14 99 99 99 99 99 99 99 22 22 22 22 45 45 45
 67 67 67 67 67 21 21 21 21 99 99 99 99 99 99 99 99 99 22 22
 22 45 45 45 45 92 92 92 92 67 21 21 21 85 85 99 99 99 99 99
 99 99 99 22 22 22 22 45 45 61 61 61 92 92 67 21 85 85 85 85
 99 99 99 99 99 99 99 99 99 22 22 22 61 61 61 61 61 61 61 61
 85 85 85 85 85 99 99 99 99 99 99 99 99 99 61 61 61 61 61 61
 61 61 61 61 61 85 85 85 85 85 85 99 99 99 99 99 99 99 99 61
 61 61 61 61 61 61 61 61 61 61 85 85 85 85 85 85 99 99 99 99
 99 99 99 99 61 61 61 61 61 61 61 61 61 61 61 85 85 85 85 85
 85 85 99 99 99 99 99 99 61 61 61 61 61 61 61 61 61 61 61 61
 85 85 1 1 1 85 85 99 99 12 7 7 44 44 61 61 61 61 61 61
 61 61 61 61 61 1 1 1 1 1 1 1 17 12 12 7 44 44 44 44
 61 61 61 61 61 61 61 61 61 61 1 1 1 1 1 1 17 17 12 12
 44 44 44 44 44 13 13 61 61 61 61 61 61 61 61 40 1 1 1 1
 17 17 17 44 44 44 44 44 44 44 13 13 13 13 76 76 76 61 61 40
 40 40 1 1 17 17 17 17 44 44 44 44 44 44 44 13 13 76 76 76
 76 76 76 40 40 40 40 40 40 17 17 17 17 83 44 44 44 44 44 78
 78 76 76 76 76 76 76 76 40 40 40 40 40 40 83 83 83 83 83 57
 57 57 57 57 78 78 76 76 76 76 76 76 76 15 40 40 40 40 40 83
 83 83 83 83 83 57 57 57 78 78 78 78 76 76 76 76 76 76 40 40
 40 40 40 83 83 83 83 83 83 83 57 57 78 78 78 78 78 76 76 76
 76 76 70 70 70 40 40 40 83 83 83 83 83 83 83 83 78 78 78 78
 78 78 76 76 76 76 76 70 70 70 43 83 83 83 83 83 83 83 83 83
 83 83 78 78 78 78 78 78 76 76 43 43 70 70 70 43 30 83 83 83
 83 83 98 83 83 83 83 78 78 78 78 78 78 67 67 67 43 43 43 43
 30 28 83 83 83 83 98 98 83 83 83 83 78 78 78 78 78 78 67 67
 67 67 67 43 43 28 28 28 28 28 28 28 28 83 83 2 2 22 22 22
 22 22 22 67 67 67 67 67 67 67 67 28 28 28 28 28 28 28 28 99
 99 22 22 22 22 22 22 22 67 67 67 67 67 67 67 67 28 28 28 28
 28 28 28 99 99 99 22 22 22 22 22 22 22 67 67 67 67 67 67 67
 67 28 28 28 28 28 28 99 99 99 99 38 22 22 22 22 22 22 22 67
 67 67 67 67 67 67 28 28 28 28 99 99 99 99 99 99 99 22 22 22
 22 22 22 22 67 67 67 67 67 67 21 85 85 85 99 99 99 99 99 99
 99 99 22 22 22 22 22 22 22 22 67 67 67 67 67 85 85 85 85 85
 99 99 99 99 99 99 99 99 22 22 22 22 22 22 61 61 61 67 67 67
 85 85 85 85 85 99 99 99 99 99 99 99 99 22 22 22 22 61 61 61
 61 61 61 61 61 85 85 85 85 85 85 99 99 99 99 99 99 99 8 22
 61 61 61 61 61 61 61 61 61 61 85 85 85 85 85 85 85 99 99 99
 99 99 99 8 8 61 61 61 61 61 61 61 61 61 61 85 85 85 85 85
 85 85 99 99 99 99 99 8 8 8 61 61 61 61 61 61 61 61 61 61
 85 85 85 85 85 85 85 85 99 99 99 99 8 8 8 61 61 61 61 61
 61 61 61 61 61 85 85 1 1 1 85 85 85 85 94 99 99 8 8 8
 61 61 61 61 61 61 61 61 61 61 1 1 1 1 1 1 1 1 1 94
 94 44 44 44 61 61 61 61 61 61 61 61 61 61 61 1 1 1 1 1
 1 1 17 17 44 44 44 44 44 44 61 61 61 61 61 61 61 61 61 61
 1 1 1 1 1 1 17 17 44 44 44 44 44 44 44 13 76 76 76 76
 76 76 76 15 15 1 1 1 1 1 17 17 83 44 44 44 44 44 44 44
 76 76 76 76 76 76 76 76 15 15 40 1 1 1 1 83 83 83 83 44
 44 57 44 44 44 76 76 76 76 76 76 76 76 15 15 40 40 40 83 83
 83 83 83 83 83 57 57 57 57 78 78 76 76 76 76 76 76 76 15 15
 70 40 40 83 83 83 83 83 83 83 57 57 57 78 78 78 76 76 76 76
 76 76 70 70 70 70 40 83 83 83 83 83 83 83 83 83 57 57 78 78
 78 78 76 76 76 76 76 70 70 70 70 70 83 83 83 83 83 83 83 83
 83 83 78 78 78 78 78 76 76 76 76 76 70 70 70 43 83 83 83 83
 83 83 83 83 83 83 83 78 78 78 78 78 78 76 76 76 70 70 70 70
 43 83 83 83 83 83 83 83 83 83 83 83 78 78 78 78 78 78 76 76
 67 67 70 70 70 28 28 28 28 28 83 83 83 83 83 83 2 2 22 22
 22 22 22 67 67 67 67 67 67 67 28 28 28 28 28 28 28 28 28 83
 2 2 2 22 22 22 22 22 67 67 67 67 67 67 67 67 28 28 28 28
 28 28 28 28 28 38 2 2 22 22 22 22 22 67 67 67 67 67 67 67
 67 28 28 28 28 28 28 28 28 38 38 38 22 22 22 22 22 22 67 67
 67 67 67 67 67 67 28 28 28 28 28 28 28 99 38 38 38 22 22 22
 22 22 22 22 67 67 67 67 67 67 67 28 28 28 28 28 28 99 99 99
 38 38 22 22 22 22 22 22 22 67 67 67 67 67 67 85 85 28 28 28
 99 99 99 99 99 38 38 38 22 22 22 22 22 22 22 67 67 67 67 67
 85 85 85 85 85 85 99 99 99 99 99 99 22 22 22 22 22 22 22 61
 61 61 67 67 67 85 85 85 85 85 85 99 99 99 99 99 99 99 22 22
 22 22 22 61 61 61 61 61 61 85 85 85 85 85 85 85 85 99 99 99
 99 99 8 8 8 22 61 61 61 61 61 61 61 61 85 85 85 85 85 85
 85 85 99 99 99 99 8 8 8 8 8 61 61 61 61 61 61 61 61 85
 85 85 85 85 85 85 85 85 99 99 99 8 8 8 8 8 61 61 61 61
 61 61 61 61 85 85 85 85 85 85 85 85 85 99 99 99 8 8 8 8
 8 61 61 61 61 61 61 61 61 85 85 85 85 1 85 85 85 85 85 94
 94 94 8 8 8 8 61 61 61 61 61 61 61 61 85 1 1 1 1 1
 1 1 85 94 94 94 94 94 94 8 61 61 61 61 61 61 61 61 61 85
 1 1 1 1 1 1 1 1 94 94 94 94 94 94 94 61 61 61 61 61
 61 61 61 61 15 1 1 1 1 1 1 1 17 44 44 44 44 44 44 44
 76 76 76 76 76 76 76 15 15 15 15 1 1 1 1 1 83 83 83 44
 44 44 44 44 44 76 76 76 76 76 76 76 15 15 15 15 1 1 1 1
 83 83 83 83 83 44 57 44 44 44 76 76 76 76 76 76 76 15 15 15
 15 15 1 83 83 83 83 83 83 83 57 57 57 57 78 76 76 76 76 76
 76 76 15 15 15 70 70 83 83 83 83 83 83 83 83 83 57 57 57 78
 78 76 76 76 76 76 76 70 70 70 70 70 83 83 83 83 83 83 83 83
 83 83 57 78 78 78 76 76 76 76 76 76 70 70 70 70 70 83 83 83
 83 83 83 83 83 83 83 78 78 78 78 78 76 76 76 76 70 70 70 70
 83 83 83 83 83 83 83 83 83 83 83 83 83 78 78 80 80 80 76 76
 76 70 70 70 70 43 83 83 83 83 83 83 83 83 83 83 83 2 2 78
 80 80 67 67 67 67 67 70 70 70 28 28 28 28 28 28 28 83 83 83
 2 2 2 2 22 22 22 67 67 67 67 67 67 67 67 28 28 28 28 28
 28 28 28 28 2 2 2 2 22 22 22 22 67 67 67 67 67 67 67 67
 67 28 28 28 28 28 28 28 28 28 2 2 2 22 22 22 22 67 67 67
 67 67 67 67 67 67 28 28 28 28 28 28 28 28 38 38 38 22 22 22
 22 22 22 67 67 67 67 67 67 67 67 28 28 28 28 28 28 28 28 38
 38 38 53 53 22 22 22 22 67 67 67 67 67 67 67 67 28 28 28 28
 28 28 28 99 38 38 38 38 53 22 22 22 22 22 67 67 67 67 67 67
 67 28 28 28 28 28 28 99 99 38 38 38 53 53 22 22 22 22 22 67
 67 67 67 67 67 85 85 85 85 85 85 99 99 99 99 99 99 53 53 22
 22 22 22 22 22 67 67 67 67 67 85 85 85 85 85 85 85 99 99 99
 99 99 8 8 22 22 22 22 61 61 61 61 61 61 85 85 85 85 85 85
 85 85 99 99 99 99 8 8 8 8 8 61 61 61 61 61 61 61 61 85
 85 85 85 85 85 85 85 85 99 99 8 8 8 8 8 8 61 61 61 61
 61 61 61 61 85 85 85 85 85 85 85 85 85 85 99 8 8 8 8 8
 8 61 61 61 61 61 61 61 61 85 85 85 85 85 85 85 85 85 85 8
 8 8 8 8 8 8 61 61 61 61 61 61 61 61 85 85 85 85 85 85
 85 85 85 85 94 94 94 8 8 8 8 61 61 61 47 61 61 61 61 85
 85 1 1 1 1 1 85 85 94 94 94 94 94 94 8 8 61 61 61 61
 61 61 61 61 85 1 1 1 1 1 1 1 1 94 94 94 94 94 94 94
 8 61 61 61 61 61 61 15 15 15 63 1 1 1 1 1 1 1 44 94
 94 94 94 94 94 76 76 76 76 76 76 76 15 15 15 63 63 1 1 1
 1 83 83 83 44 94 94 94 94 44 76 76 76 76 76 76 76 15 15 15
 15 63 63 1 83 83 83 83 83 83 44 57 44 44 44 76 76 76 76 76
 76 76 15 15 15 15 63 63 83 83 83 83 83 83 83 83 57 57 57 78
 76 76 76 76 76 76 76 15 15 15 15 15 83 83 83 83 83 83 83 83
 83 83 57 57 78 78 76 76 76 76 76 76 15 15 15 70 70 83 83 83
 83 83 83 83 83 83 83 57 78 78 78 76 76 76 76 76 76 70 70 70
 70 70 83 83 83 83 83 83 83 83 83 83 83 78 78 78 76 76 76 76
 76 76 70 70 70 83 83 83 83 83 83 83 83 83 83 83 83 80 80 80
 80 80 80 80 67 67 67 70 70 70 28 28 28 83 83 83 83 83 83 83
 83 2 2 80 80 80 80 80 67 67 67 67 67 67 67 28 28 28 28 28
 28 28 28 83 83 2 2 2 2 22 80 80 67 67 67 67 67 67 67 67
 28 28 28 28 28 28 28 28 28 2 2 2 2 2 22 22 22 67 67 67
 67 67 67 67 67 28 28 28 28 28 28 28 28 28 28 2 2 2 22 22
 22 22 67 67 67 67 67 67 67 67 67 28 28 28 28 28 28 28 28 38
 38 38 53 53 22 22 22 22 67 67 67 67 67 67 67 67 28 28 28 28
 28 28 28 28 38 38 38 53 53 53 22 22 22 67 67 67 67 67 67 67
 67 28 28 28 28 28 28 28 28 38 38 38 53 53 53 22 22 22 67 67
 67 67 67 67 67 67 28 28 28 28 28 28 28 28 38 38 38 53 53 53
 22 22 22 22 67 67 67 67 67 67 85 85 85 85 85 85 85 99 99 38
 38 53 53 53 53 22 22 22 22 22 67 67 67 67 67 85 85 85 85 85
 85 85 85 99 99 99 8 8 8 8 22 22 22 22 61 61 61 61 85 85
 85 85 85 85 85 85 85 85 99 99 8 8 8 8 8 8 8 61 61 61
 61 61 61 85 85 85 85 85 85 85 85 85 85 85 99 8 8 8 8 8
 8 8 61 61 61 61 61 61 85 85 85 85 85 85 85 85 85 85 85 85
 8 8 8 8 8 8 8 61 9 9 9 61 61 85 85 85 85 85 85 85
 85 85 85 85 8 8 8 8 8 8 8 8 61 9 47 9 61 61 85 85
 85 85 85 85 85 85 85 85 85 94 94 94 8 8 8 8 8 61 47 47
 47 61 61 61 85 85 85 85 1 85 85 85 85 94 94 94 94 94 94 8
 8 8 61 47 47 47 61 61 61 85 63 1 1 1 1 1 1 23 94 94
 94 94 94 94 94 8 8 76 47 47 47 76 15 63 63 63 63 63 1 1
 1 1 23 23 94 94 94 94 94 94 8 76 76 76 76 76 76 15 15 63
 63 63 63 63 1 1 83 23 23 23 94 94 94 94 94 76 76 76 76 76
 76 76 15 15 15 63 63 63 63 83 83 83 83 83 23 23 23 94 94 94
 76 76 76 76 76 76 15 15 15 15 15 63 63 63 83 83 83 83 83 83
 83 83 57 80 80 76 76 76 76 76 76 15 15 15 15 15 15 63 83 83
 83 83 83 83 83 83 83 57 80 80 80 76 76 76 76 76 15 15 15 15
 15 15 83 83 83 83 83 83 83 83 83 83 83 80 80 80 80 76 76 76
 76 15 15 15 15 70 70 83 83 83 83 83 83 83 83 83 83 80 80 80
 80 80 76 76 76 76 76 15 15 15 79 79 79 83 83 83 83 83 83 83
 83 80 80 80 80 80 80 80 80 80 67 67 70 70 70 79 79 28 28 83
 83 83 83 83 83 2 2 80 80 80 80 80 80 80 67 67 67 67 67 67
 28 28 28 28 28 28 28 28 28 2 2 2 2 80 80 80 80 80 67 67
 67 67 67 67 67 28 28 28 28 28 28 28 28 28 2 2 2 2 2 22
 80 80 67 67 67 67 67 67 67 67 60 60 28 28 28 28 28 28 28 28
 2 2 2 53 22 22 22 67 67 67 67 67 67 67 67 60 60 28 28 28
 28 28 28 28 28 38 38 53 53 53 22 22 22 67 67 67 67 67 67 67
 60 60 28 28 28 28 28 28 28 38 38 38 38 53 53 53 22 22 67 67
 67 67 67 67 67 28 28 28 28 28 28 28 28 28 38 38 38 38 53 53
 53 22 22 67 67 67 67 67 67 67 28 28 28 28 28 28 28 28 28 38
 38 38 38 53 53 53 22 22 22 67 67 67 67 67 67 85 85 85 85 85
 28 28 28 38 38 38 38 53 53 53 22 22 22 22 67 67 67 67 67 67
 85 85 85 85 85 85 85 85 38 38 38 8 8 8 8 22 22 22 9 9
 9 18 18 85 85 85 85 85 85 85 85 85 85 85 68 8 8 8 8 8
 8 8 9 9 9 9 9 9 85 85 85 85 85 85 85 85 85 85 85 8
 8 8 8 8 8 8 8 9 9 9 9 9 9 85 85 85 85 85 85 85
 85 85 85 85 8 8 8 8 8 8 8 8 9 9 9 9 9 9 85 85
 85 85 85 85 85 85 85 85 85 8 8 8 8 8 8 8 8 9 9 9
 9 9 9 85 85 85 85 85 85 85 85 85 85 85 94 94 94 8 8 8
 8 8 9 47 47 47 9 9 85 85 56 56 85 85 85 85 85 85 23 94
 94 94 94 94 8 8 8 61 47 47 47 61 56 56 56 63 63 63 63 85
 85 85 23 23 23 94 94 94 94 94 8 8 76 47 47 47 15 15 56 56
 63 63 63 63 63 1 23 23 23 23 23 94 94 94 94 84 76 76 76 76
 76 15 15 15 63 63 63 63 63 63 1 23 23 23 23 23 23 94 94 94
 84 84 76 76 76 76 15 15 15 63 63 63 63 63 63 83 83 23 23 23
 23 23 94 94 84 84 76 76 76 76 76 15 15 15 15 63 63 63 63 83
 83 83 83 23 23 23 23 23 80 80 84 76 76 76 76 76 15 15 15 15
 15 63 63 83 83 83 83 83 83 83 83 83 80 80 80 80 80 76 76 76
 76 15 15 15 15 15 63 63 83 83 83 83 83 83 83 83 83 80 80 80
 80 80 80 76 76 76 15 15 15 15 15 79 79 83 83 83 83 83 83 83
 83 83 80 80 80 80 80 80 76 76 76 15 15 15 15 79 79 79 79 79
 79 79 83 83 83 83 80 80 80 80 80 80 80 80 80 80 67 67 67 97
 79 79 79 79 79 79 79 83 83 83 2 80 80 80 80 80 80 80 80 67
 67 67 67 67 97 97 79 79 79 28 28 28 28 28 2 2 2 80 80 80
 80 80 80 67 67 67 67 67 67 67 97 60 28 28 28 28 28 28 28 28
 2 2 2 80 80 80 80 67 67 67 67 67 67 67 67 60 60 60 28 28
 28 28 28 28 28 2 2 2 53 22 22 22 67 67 67 67 67 67 67 67
 60 60 60 28 28 28 28 28 28 28 38 38 38 53 53 53 22 67 67 67
 67 67 67 67 67 60 60 28 28 28 28 28 28 28 38 38 38 38 53 53
 53 22 22 67 67 67 67 67 67 67 60 28 28 28 28 28 28 28 28 38
 38 38 38 53 53 53 22 22 67 67 67 67 67 67 67 60 28 28 28 28
 28 28 28 28 38 38 38 38 53 53 53 22 22 67 67 67 67 67 18 18
 85 85 85 85 28 28 28 28 90 38 38 38 38 53 53 53 22 22 22 67
 67 18 18 18 18 85 85 85 85 85 85 85 85 68 68 68 38 8 8 8
 8 22 22 9 9 9 18 18 18 18 85 85 85 85 85 85 85 85 68 68