# vtk DataFile Version 2.0
Data set from ImportExport Version 6.5.141.ec284b7a5
ASCII

DATASET RECTILINEAR_GRID
DIMENSIONS 26 26 26
X_COORDINATES 26 float
-3.000000 3.000000 9.000000 15.000000 21.000000 27.000000 33.000000 39.000000 45.000000 51.000000 57.000000 63.000000 69.000000 75.000000 81.000000 87.000000 93.000000 99.000000 105.000000 111.000000 117.000000 
123.000000 129.000000 135.000000 141.000000 147.000000 
Y_COORDINATES 26 float
-3.000000 3.000000 9.000000 15.000000 21.000000 27.000000 33.000000 39.000000 45.000000 51.000000 57.000000 63.000000 69.000000 75.000000 81.000000 87.000000 93.000000 99.000000 105.000000 111.000000 117.000000 
123.000000 129.000000 135.000000 141.000000 147.000000 
Z_COORDINATES 26 float
-3.000000 3.000000 9.000000 15.000000 21.000000 27.000000 33.000000 39.000000 45.000000 51.000000 57.000000 63.000000 69.000000 75.000000 81.000000 87.000000 93.000000 99.000000 105.000000 111.000000 117.000000 
123.000000 129.000000 135.000000 141.000000 147.000000 
CELL_DATA 15625
SCALARS FeatureIds int 1
LOOKUP_TABLE default
 83 83 30 85 85 85 85 2 2 2 2 2 2 2 2 2 2 2 83 83
 83 83 83 83 83 83 83 30 85 85 85 85 2 2 2 2 2 2 2 2
 2 2 2 83 83 83 83 83 83 83 83 83 83 85 85 85 85 2 2 2
 2 2 2 2 2 2 2 2 83 83 83 83 83 83 83 83 83 48 48 48
 85 85 2 2 2 2 2 2 2 2 2 2 58 58 83 83 83 83 83 83
 83 83 48 48 48 54 54 20 20 20 20 20 20 20 2 2 2 58 58 83
 83 83 83 83 83 83 83 48 48 48 54 54 54 20 20 20 20 20 20 20
 2 58 58 97 97 83 83 83 83 83 83 83 48 48 48 54 54 20 20 20
 20 20 20 20 20 20 97 97 97 97 83 97 83 83 83 43 43 43 43 43
 43 43 26 26 26 26 20 20 20 27 27 97 97 97 97 97 97 97 83 83
 43 43 43 43 43 43 43 26 26 26 26 26 20 27 27 27 97 97 97 97
 97 97 97 97 83 43 43 43 43 43 43 43 26 26 26 26 26 26 27 27
 97 97 97 97 97 97 97 97 97 97 43 43 43 43 43 43 43 26 26 26
 26 63 63 63 63 97 97 97 97 97 97 97 97 97 97 43 43 43 43 43
 43 43 43 26 26 63 63 63 63 63 97 97 97 97 97 97 80 80 80 80
 43 43 43 43 43 43 43 43 26 26 63 63 63 63 63 97 97 97 97 80
 80 80 80 80 80 33 43 43 43 43 43 43 11 11 11 63 63 63 63 63
 38 38 38 80 80 80 80 80 80 80 33 33 33 43 43 43 43 11 11 11
 11 63 63 63 7 38 38 38 88 88 80 80 80 80 80 33 33 33 33 16
 84 11 11 11 11 11 63 7 7 7 7 38 38 88 88 88 88 80 80 80
 33 33 16 16 16 84 84 11 11 91 91 91 91 7 7 7 88 88 88 88
 88 88 88 80 80 33 16 16 16 84 84 84 84 91 91 91 91 91 7 7
 7 88 88 88 88 88 88 88 88 88 67 16 16 84 84 84 84 84 91 91
 91 91 91 7 7 7 88 88 88 88 88 88 88 88 88 67 67 84 84 84
 84 84 84 91 91 91 91 91 7 7 7 88 88 88 88 88 88 49 49 49
 67 67 84 84 84 84 84 84 84 91 91 2 2 7 7 88 88 88 88 88
 88 49 49 49 49 67 67 84 84 84 84 84 84 84 2 2 2 2 2 2
 88 88 88 88 88 49 49 49 49 49 67 67 84 84 84 84 84 84 2 2
 2 2 2 2 2 2 88 88 49 49 49 49 49 49 49 67 67 57 57 84
 84 84 2 2 2 2 2 2 2 2 2 2 88 49 49 49 49 49 49 49
 83 83 57 57 84 84 2 2 2 2 2 2 2 2 2 2 2 2 49 49
 49 49 49 83 83 83 83 30 30 30 30 2 2 2 2 2 2 2 2 2
 2 2 2 83 83 83 83 83 83 83 83 83 30 30 30 30 2 2 2 2
 2 2 2 2 2 2 2 2 83 83 83 83 83 83 83 83 83 30 30 30
 30 2 2 2 2 2 2 2 2 2 2 2 2 83 83 83 83 83 83 83
 83 83 48 48 48 48 2 2 2 2 2 2 2 2 2 2 2 58 83 83
 83 83 83 83 83 83 83 48 48 48 54 54 2 2 2 2 2 2 2 2
 2 2 58 58 83 83 83 83 83 83 83 83 48 48 48 54 54 54 20 20
 20 20 20 20 20 2 2 58 97 83 83 83 83 83 83 83 83 48 48 48
 54 54 54 20 20 20 20 20 20 20 20 97 97 97 83 83 83 83 83 83
 83 43 43 48 43 43 43 26 26 26 26 26 20 20 27 27 97 97 97 97
 97 97 83 83 83 43 43 43 43 43 43 43 26 26 26 26 26 26 27 27
 97 97 97 97 97 97 97 97 83 83 43 43 43 5 43 43 43 26 26 26
 26 26 26 26 27 97 97 97 97 97 97 97 97 97 97 43 43 43 43 43
 43 43 26 26 26 26 26 26 26 26 97 97 97 97 97 97 97 97 97 97
 43 43 43 43 43 43 43 26 26 26 26 26 26 63 63 97 97 97 97 97
 97 97 80 80 80 43 43 43 43 43 43 43 43 26 26 26 63 63 63 63
 7 97 97 97 80 80 80 80 80 80 33 33 43 43 43 43 43 11 11 11
 63 63 63 63 7 7 38 38 88 88 80 80 80 80 80 33 33 33 33 43
 43 43 11 11 11 11 63 63 7 7 7 38 38 88 88 88 88 80 80 80
 33 33 33 33 16 84 84 11 11 11 11 7 7 7 7 7 38 38 88 88
 88 88 88 80 80 33 33 16 16 16 84 84 84 11 91 91 91 7 7 7
 7 7 38 88 88 88 88 88 88 88 33 16 16 16 16 84 84 84 84 91
 91 91 7 7 7 7 7 88 88 88 88 88 88 88 88 67 16 16 16 84
 84 84 84 84 91 91 91 7 7 7 7 7 88 88 88 88 88 88 49 49
 67 67 84 84 84 84 84 84 84 91 37 37 7 7 7 7 88 88 88 88
 88 88 49 49 49 67 67 84 84 84 84 84 84 84 91 37 2 2 7 7
 7 88 88 88 88 49 49 49 49 49 67 67 84 84 84 84 84 84 84 2
 2 2 2 2 7 7 88 88 88 49 49 49 49 49 49 67 67 57 84 84
 84 84 84 2 2 2 2 2 2 2 2 88 88 49 49 49 49 49 49 49
 83 57 57 57 57 84 84 2 2 2 2 2 2 2 2 2 2 49 49 49
 49 49 49 49 49 83 83 57 57 57 57 2 2 2 2 2 2 2 2 2
 2 2 2 49 49 49 49 83 83 83 83 30 30 30 30 30 2 2 2 2
 2 2 2 2 2 2 2 2 83 83 83 83 83 83 83 83 30 30 30 30
 30 2 2 2 2 2 2 2 2 2 2 2 2 83 83 83 83 83 83 83
 83 83 30 30 30 30 2 2 2 2 2 2 2 2 2 2 2 2 83 83
 83 83 83 83 83 83 83 83 30 30 30 2 2 2 2 2 2 2 2 2
 2 2 51 83 83 83 83 83 83 83 83 83 48 48 48 54 54 2 2 2
 2 2 2 2 2 2 2 51 83 83 83 83 83 83 83 83 83 48 48 48
 54 54 54 2 2 2 2 2 2 2 2 51 51 83 83 83 83 83 83 83
 83 83 48 48 48 54 54 26 26 20 20 20 20 20 2 2 51 51 97 83
 83 83 83 83 83 83 83 48 48 48 43 43 26 26 26 26 26 26 20 27
 27 97 97 97 97 83 83 83 83 83 83 43 5 5 5 43 43 26 26 26
 26 26 26 26 27 97 97 97 97 97 97 97 83 83 83 60 43 5 5 5
 43 26 26 26 26 26 26 26 26 26 97 97 97 97 97 97 97 97 83 83
 60 60 5 5 5 43 26 26 26 26 26 26 26 26 22 22 97 97 97 97
 97 97 97 97 60 60 60 43 43 43 43 43 26 26 26 26 26 26 63 22
 22 22 97 97 97 97 97 80 80 60 60 60 60 43 43 43 43 26 26 26
 26 26 26 63 22 22 22 97 97 97 80 80 80 80 60 33 60 60 60 43
 43 43 26 26 26 26 63 63 7 7 7 38 38 88 88 88 88 88 80 80
 33 33 33 33 16 84 84 11 11 11 55 63 7 7 7 7 38 38 88 88
 88 88 88 80 80 33 33 33 33 16 84 84 84 37 37 37 7 7 7 7
 7 7 38 88 88 88 88 88 88 88 33 33 16 16 16 84 84 84 37 37
 37 7 7 7 7 7 7 88 88 88 88 88 88 88 88 33 16 16 16 16
 84 84 84 84 37 37 7 7 7 7 7 7 88 88 88 88 88 88 88 88
 67 16 16 84 84 84 84 84 84 37 37 37 7 7 7 7 7 88 88 88
 88 88 49 49 49 67 67 84 84 84 84 84 84 84 37 37 37 7 7 7
 7 7 88 88 88 88 49 49 49 49 67 67 84 84 84 84 84 84 84 37
 37 37 7 7 7 7 7 88 88 49 49 49 49 49 49 67 67 84 84 84
 84 84 84 84 2 2 2 2 7 7 7 7 88 49 49 49 49 49 49 49
 25 57 57 57 57 84 84 84 2 2 2 2 2 2 2 2 7 88 49 49
 49 49 49 49 49 83 57 57 57 57 57 84 2 2 2 2 2 2 2 2
 2 2 49 49 49 49 49 49 49 49 83 83 57 57 57 57 2 2 2 2
 2 2 2 2 2 2 2 49 49 49 49 49 83 83 83 83 30 30 30 30
 30 30 2 2 2 2 2 2 2 2 2 2 23 83 83 83 83 83 83 83
 83 30 30 30 30 30 30 2 2 2 2 2 2 2 2 2 2 23 83 83
 83 83 83 83 83 83 83 30 30 30 30 30 2 2 2 2 2 2 2 2
 2 2 23 83 83 83 83 83 83 83 83 83 83 30 30 30 28 2 2 2
 2 2 2 2 2 2 2 51 83 83 83 83 83 83 83 83 83 48 48 48
 54 13 13 2 2 2 2 2 2 2 2 51 51 51 83 83 83 83 83 83
 83 83 48 48 48 13 13 13 13 2 2 2 2 2 2 51 51 51 51 83
 83 83 83 83 83 83 83 48 48 48 13 13 13 13 13 2 2 2 2 96
 51 51 51 51 93 93 93 83 83 83 83 83 48 48 48 9 9 9 9 26
 26 26 26 2 96 96 51 51 51 93 93 93 93 83 83 60 60 5 5 5
 9 9 9 26 26 26 26 26 26 22 22 22 97 97 93 93 93 93 83 83
 60 60 5 5 5 9 9 9 26 26 26 26 26 26 22 22 22 97 97 93
 93 93 47 47 60 60 60 60 5 5 9 9 9 26 26 26 26 26 22 22
 22 22 97 97 47 47 47 47 47 60 60 60 60 5 5 9 9 9 26 26
 26 26 26 22 22 22 22 22 97 47 47 47 47 47 60 60 60 60 60 9
 9 9 9 26 26 26 26 26 22 22 22 22 88 88 47 47 47 47 47 60
 60 60 60 60 66 43 9 9 26 26 55 55 55 7 7 22 7 88 88 88
 88 88 47 47 60 33 60 66 66 66 95 95 95 37 55 55 55 55 7 7
 7 7 88 88 88 88 88 88 88 60 33 66 66 66 66 95 95 95 37 37
 37 7 7 7 7 7 7 7 88 88 88 88 88 88 88 66 66 66 66 95
 95 95 95 37 37 37 37 7 7 7 7 7 7 88 88 88 88 88 88 88
 66 66 66 66 95 95 95 84 37 37 37 37 7 7 7 7 7 7 88 88
 88 88 88 88 88 66 66 66 66 84 84 84 84 37 37 37 37 7 7 7
 7 7 7 88 88 88 88 49 49 49 66 66 66 84 84 84 84 84 37 37
 37 37 37 7 7 7 7 7 88 88 49 49 49 49 49 67 67 84 84 84
 84 84 84 37 37 37 37 37 7 7 7 7 88 49 49 49 49 49 49 49
 25 25 57 57 84 84 84 84 37 37 37 37 37 7 7 7 7 88 49 49
 49 49 49 49 49 25 25 57 57 57 84 84 84 2 2 2 2 2 2 2
 7 7 49 49 49 49 49 49 49 49 25 25 57 57 57 57 57 2 2 2
 2 2 2 2 2 6 49 49 49 49 49 49 49 49 49 83 25 57 57 57
 30 30 2 2 2 2 2 2 2 2 2 2 49 49 49 49 49 83 83 83
 83 25 30 30 30 30 28 28 28 2 2 2 2 2 2 2 23 23 23 23
 83 83 83 83 83 83 30 30 30 30 30 28 28 28 2 2 2 2 2 2
 2 23 23 23 23 83 83 83 83 83 83 83 30 30 30 30 28 28 28 2
 2 2 2 2 2 2 23 23 23 23 83 83 83 83 83 83 83 83 30 30
 28 28 28 2 2 2 2 2 2 2 2 23 23 23 83 83 83 83 83 83
 83 83 83 48 13 13 13 13 13 2 2 2 2 2 96 96 96 51 23 83
 83 83 83 83 83 83 83 83 48 13 13 13 13 13 13 2 2 96 96 96
 96 96 51 51 83 83 83 83 83 83 83 83 48 48 9 13 13 13 13 13
 13 96 96 96 96 96 96 51 51 93 93 93 93 83 83 83 83 48 9 9
 9 9 9 9 9 9 9 96 96 96 96 96 51 93 93 93 93 93 83 83
 60 60 60 5 9 9 9 9 9 9 9 9 96 96 22 22 22 22 93 93
 93 93 93 83 83 60 60 60 5 9 9 9 9 9 9 9 9 9 22 22
 22 22 22 93 93 93 93 47 47 60 60 60 60 60 9 9 9 9 9 9
 9 9 9 22 22 22 22 22 47 47 47 47 47 47 60 60 60 60 60 9
 9 9 9 9 9 9 9 22 22 22 22 22 22 22 47 47 47 47 47 60
 60 60 60 60 9 9 9 9 9 9 9 9 22 22 22 22 22 22 47 47
 47 47 47 47 60 60 60 60 60 66 66 9 9 9 9 55 55 55 22 22
 22 22 22 88 47 47 47 47 47 60 60 66 66 66 66 66 95 95 37 55
 55 55 55 7 7 7 7 22 88 88 88 88 47 47 60 66 66 66 66 95
 95 95 95 37 37 55 55 55 7 7 7 7 7 88 88 88 88 88 88 66
 66 66 66 66 95 95 95 95 37 37 37 55 7 7 7 7 7 7 88 88
 88 88 88 88 66 66 66 66 66 95 95 95 95 37 37 37 37 37 7 7
 7 7 7 88 88 88 88 88 49 66 66 66 66 66 95 95 95 37 37 37
 37 37 37 7 7 7 7 7 88 88 88 49 49 49 49 66 66 66 66 66
 95 95 37 37 37 37 37 37 7 7 7 7 7 88 49 49 49 49 49 49
 66 66 66 66 66 84 84 37 37 37 37 37 37 7 7 7 7 7 49 49
 49 49 49 49 49 25 25 25 25 25 84 84 37 37 37 37 37 37 7 7
 7 7 49 49 49 49 49 49 49 49 25 25 25 57 57 57 28 28 37 37
 37 2 2 6 6 6 6 49 49 49 49 49 49 49 25 25 25 57 57 57
 28 28 28 28 2 2 2 2 2 6 6 6 49 49 49 49 49 49 49 25
 25 25 25 57 57 28 28 28 28 2 2 2 2 2 2 6 6 23 23 23
 49 49 83 83 83 25 25 25 25 30 28 28 28 28 28 2 2 2 2 2
 6 23 23 23 23 23 83 83 83 83 83 83 30 30 30 28 28 28 28 28
 2 2 2 89 89 89 23 23 23 23 23 83 83 83 83 83 83 30 30 28
 28 28 28 28 28 2 2 89 89 89 89 23 23 23 23 23 83 83 83 83
 83 83 83 30 28 28 28 28 28 28 2 2 89 89 89 89 23 23 23 23
 83 83 83 83 83 83 83 83 83 13 13 13 13 13 13 2 96 96 96 96
 96 96 23 23 23 83 83 83 83 83 83 83 83 83 13 13 13 13 13 13
 96 96 96 96 96 96 96 96 23 83 83 93 83 83 83 83 83 83 9 9
 13 13 13 13 13 96 96 96 96 96 96 96 96 93 93 93 93 93 83 83
 83 4 4 9 9 9 9 9 9 9 9 96 96 96 96 96 96 96 93 93
 93 93 93 93 83 60 60 60 9 9 9 9 9 9 9 9 9 96 96 96
 96 22 44 93 93 93 93 93 93 83 60 60 60 9 9 9 9 9 9 9
 9 9 9 22 22 22 22 44 44 93 93 93 47 47 60 60 60 60 60 9
 9 9 9 9 9 9 9 9 22 22 22 22 44 44 47 47 47 47 47 60
 60 60 60 60 9 9 9 9 9 9 9 9 22 22 22 22 22 44 44 47
 47 47 47 47 60 60 60 60 60 9 9 9 9 9 9 9 9 22 22 22
 22 22 44 44 47 47 47 47 47 60 60 60 60 60 66 66 9 9 9 9
 55 55 55 22 22 22 22 44 44 47 47 47 47 47 60 60 66 66 66 66
 66 66 95 37 55 55 55 55 22 22 7 7 10 88 88 88 47 47 47 60
 66 66 66 66 66 95 95 95 37 37 55 55 55 7 7 7 7 10 10 88
 88 88 88 66 66 66 66 66 66 95 95 95 95 37 37 37 55 37 7 7
 7 7 7 88 88 88 88 88 66 66 66 66 66 66 95 95 95 37 37 37
 37 37 37 7 7 7 7 7 88 88 88 88 49 66 66 66 66 66 66 95
 95 95 37 37 37 37 37 37 7 7 7 7 7 88 88 49 49 49 49 66
 66 66 66 66 66 95 95 37 37 37 37 37 37 37 7 7 7 7 49 49
 49 49 49 49 49 25 25 66 66 66 66 37 37 37 37 37 37 37 37 7
 7 7 7 49 49 49 49 49 49 25 25 25 25 25 25 66 37 37 37 37
 37 37 64 6 6 6 6 6 49 49 49 49 49 49 25 25 25 25 25 25
 25 28 28 37 37 64 64 64 6 6 6 6 6 49 49 49 49 49 49 25
 25 25 25 25 25 28 28 28 28 28 64 64 64 6 6 6 6 6 53 49
 49 49 49 25 25 25 25 25 25 25 28 28 28 28 28 64 64 64 6 6
 6 6 23 23 23 23 23 83 83 25 25 25 25 25 28 28 28 28 28 28
 28 64 89 89 6 6 6 23 23 23 23 23 83 83 25 25 25 25 25 28
 28 28 28 28 28 28 89 89 89 89 89 78 23 23 23 23 23 83 83 83
 83 83 25 25 28 28 28 28 28 28 28 89 89 89 89 89 23 23 23 23
 23 23 83 83 83 83 83 83 83 28 28 28 28 28 28 28 89 89 89 89
 89 23 23 23 23 23 83 83 83 83 83 83 83 83 28 28 13 13 13 13
 96 96 96 96 96 96 96 23 23 23 23 83 83 83 83 83 83 83 83 13
 13 13 13 13 13 96 96 96 96 96 96 96 23 23 23 17 93 93 83 83
 4 4 4 9 9 9 9 13 13 9 96 96 96 96 96 96 96 96 93 93
 93 93 93 93 83 4 4 4 9 9 9 9 9 9 9 9 96 96 96 96
 96 96 96 93 93 93 93 93 93 4 4 4 4 9 9 9 9 9 9 9
 9 9 96 96 96 96 44 44 93 93 93 93 93 93 4 60 60 60 9 9
 9 9 9 9 9 9 9 96 96 22 22 44 44 44 93 93 93 47 47 60
 60 60 60 60 9 9 9 9 9 9 9 9 9 22 22 22 44 44 44 47
 47 47 47 47 60 60 60 60 60 9 9 9 9 9 9 9 9 9 22 22
 22 44 44 44 47 47 47 47 47 60 60 60 60 60 9 9 9 9 9 9
 9 9 9 22 22 22 44 44 44 47 47 47 47 47 60 60 60 60 66 66
 66 9 9 9 9 9 55 55 22 22 22 44 44 44 47 47 47 47 47 60
 66 66 66 66 66 66 66 9 9 55 55 55 55 22 22 22 10 10 10 10
 47 47 47 47 60 66 66 66 66 66 66 95 37 37 37 55 55 55 86 7
 7 10 10 10 10 88 88 47 66 66 66 66 66 66 66 95 95 37 37 37
 37 37 37 37 7 7 10 10 10 81 81 88 66 66 66 66 66 66 66 66
 95 95 37 37 37 37 37 37 37 7 7 7 7 10 81 81 88 49 66 66
 66 66 66 66 66 95 95 37 37 37 37 37 37 37 7 7 7 7 81 81
 49 49 49 66 66 66 66 66 66 66 66 95 37 37 37 37 37 37 37 7
 7 7 7 49 49 49 49 49 49 66 25 25 66 66 66 66 37 37 37 37
 37 37 37 37 37 7 6 6 49 49 49 49 49 49 25 25 25 25 25 25
 25 37 37 37 37 37 64 64 6 6 6 6 6 49 49 49 49 49 25 25
 25 25 25 25 25 25 28 28 37 37 64 64 64 6 6 6 6 6 53 53
 53 49 49 25 25 25 25 25 25 25 28 28 28 28 64 64 64 64 6 6
 6 6 6 53 53 53 49 49 25 25 25 25 25 25 25 28 28 28 28 28
 64 64 64 6 6 6 6 6 23 23 23 23 83 25 25 25 25 25 25 28
 28 28 28 28 28 28 64 64 89 6 6 78 78 23 23 23 23 23 25 25
 25 25 25 25 28 28 28 28 28 28 28 89 89 89 89 78 78 78 23 23
 23 23 23 83 25 83 25 25 28 28 28 28 28 28 28 28 89 89 89 89
 89 78 23 23 23 23 23 83 83 83 83 83 83 28 28 28 28 28 28 28
 28 89 89 89 89 89 78 23 23 23 23 23 83 83 83 83 83 83 28 28
 28 28 28 28 28 96 96 96 89 96 96 96 23 23 23 23 17 17 83 83
 83 83 4 9 9 9 13 13 13 13 96 96 96 96 96 96 96 23 23 17
 17 17 17 17 83 4 4 4 9 9 9 9 9 9 9 96 96 96 96 96
 96 96 96 17 17 17 17 17 17 4 4 4 4 9 9 9 9 9 9 9
 9 96 96 96 96 96 96 96 17 17 17 17 17 17 4 4 4 4 9 9
 9 9 9 9 9 9 9 96 96 96 96 44 44 17 17 17 17 17 17 4
 4 60 60 9 9 9 9 9 9 9 9 9 96 96 21 22 44 44 44 17
 17 17 17 17 60 60 60 60 9 9 9 9 9 9 9 9 9 9 21 21
 22 44 44 44 34 34 47 47 47 60 60 60 60 60 9 9 9 9 9 9
 9 9 9 22 21 22 44 44 44 34 34 47 47 47 60 60 60 60 60 9
 9 9 9 9 9 9 9 9 21 21 22 44 44 44 34 34 47 47 47 60
 60 60 60 66 66 66 9 9 9 9 86 86 86 86 21 22 44 44 44 34
 34 47 47 47 60 66 66 66 66 66 66 66 9 9 86 86 86 86 86 21
 10 10 10 10 34 34 47 47 66 66 66 66 66 66 66 66 66 37 37 37
 86 86 86 86 86 10 10 10 10 10 34 40 66 66 66 66 66 66 66 66
 66 66 37 37 37 37 37 86 86 7 7 10 10 10 81 81 81 66 66 66
 66 66 66 66 66 66 66 37 37 37 37 37 37 37 7 7 7 10 10 81
 81 81 66 66 66 66 66 66 66 66 66 66 37 37 37 37 37 37 37 7
 7 7 7 81 81 81 49 49 66 66 66 66 66 66 66 66 66 37 37 37
 37 37 37 37 37 7 7 7 81 81 49 49 49 66 66 25 25 66 66 66
 66 37 37 37 37 37 37 37 37 37 6 6 6 53 49 49 49 49 25 25
 25 25 25 25 25 66 37 37 37 37 37 64 64 6 6 6 6 6 53 53
 53 49 25 25 25 25 25 25 25 25 25 28 28 28 64 64 64 64 6 6
 6 6 6 53 53 53 53 25 25 25 25 25 25 25 25 28 28 28 28 64
 64 64 64 6 6 6 6 6 53 53 53 53 25 25 25 25 25 25 25 25
 28 28 28 28 28 64 64 64 6 6 6 6 6 23 53 23 23 23 25 25
 25 25 25 25 28 28 28 28 28 28 28 64 64 89 6 78 78 78 78 23
 23 23 23 25 25 25 25 25 25 28 28 28 28 28 28 28 89 89 89 89
 78 78 78 23 23 23 23 23 25 25 25 25 25 25 28 28 28 28 28 28
 28 89 89 89 89 78 78 78 23 23 23 23 23 83 83 83 83 25 28 28
 28 28 28 28 28 28 89 89 89 89 89 78 78 23 23 23 23 17 83 83
 83 83 83 28 28 28 28 28 28 28 96 96 96 89 96 96 78 78 23 23
 23 17 17 17 83 83 4 4 28 28 28 28 28 28 28 96 96 96 96 96
 96 96 78 23 17 17 17 17 17 17 4 4 4 9 9 9 9 9 9 9
 96 96 96 96 96 96 96 96 17 17 17 17 17 17 17 4 4 4 9 9
 9 9 9 9 9 9 96 96 96 96 96 96 17 17 17 17 17 17 17 4
 4 4 4 9 9 9 9 9 9 9 9 9 96 96 96 96 44 17 17 17
 17 17 17 17 4 4 60 60 9 9 9 9 9 9 9 9 9 96 21 21
 21 44 44 34 34 17 17 17 17 4 60 60 60 9 9 9 9 9 9 9
 9 9 9 21 21 21 44 44 34 34 34 17 17 17 60 60 60 60 60 9
 9 9 9 9 62 62 9 9 21 21 21 44 44 34 34 34 34 47 47 60
 60 60 60 60 9 9 9 9 9 62 62 9 21 21 21 21 44 44 34 34
 34 34 47 47 60 60 60 66 66 66 66 9 9 9 9 86 86 86 86 21
 21 44 44 34 34 34 34 47 47 60 66 66 66 66 66 66 66 66 9 86
 86 86 86 86 21 21 10 10 10 34 34 34 40 40 66 66 66 66 66 66
 66 66 66 37 86 86 86 86 86 86 10 10 10 10 10 40 40 40 66 66
 66 66 66 66 66 66 66 37 37 37 86 86 86 86 86 10 10 10 10 81
 40 40 40 66 66 66 66 66 66 66 66 66 37 37 37 37 37 37 37 37
 10 10 10 10 81 81 40 40 66 66 66 66 66 66 66 66 66 37 37 37
 37 37 37 37 37 7 7 10 81 81 40 40 40 66 66 52 52 66 66 66
 66 66 37 37 37 37 37 37 37 37 7 7 6 56 40 40 40 40 25 66
 25 52 66 66 66 66 37 37 37 37 37 37 37 37 6 6 6 6 56 53
 40 40 25 25 25 25 25 25 25 25 66 37 37 37 37 37 37 64 6 6
 6 6 6 53 53 53 53 25 25 25 25 25 25 25 25 25 28 28 28 37
 64 64 64 6 6 6 6 6 53 53 53 53 25 25 25 25 25 25 25 25
 28 28 28 28 64 64 64 64 6 6 6 6 6 53 53 53 23 25 25 25
 25 25 25 25 25 28 28 28 28 28 64 64 64 6 6 6 6 78 78 23
 23 23 23 25 25 25 25 25 25 28 28 28 28 28 28 77 64 64 89 78
 78 78 78 78 23 23 23 23 25 25 25 25 25 25 28 28 28 28 28 28
 28 89 89 89 78 78 78 78 78 23 23 23 23 25 25 25 25 25 25 28
 28 28 28 28 28 28 89 89 89 89 78 78 78 78 23 23 23 23 83 83
 83 92 25 28 28 28 28 28 28 28 28 89 89 89 89 78 78 78 78 23
 23 23 17 17 83 92 92 92 28 28 28 28 28 28 28 96 96 96 96 96
 96 78 78 78 23 17 17 17 17 17 92 92 92 28 28 28 28 28 28 28
 96 96 96 96 96 96 96 78 78 17 17 17 17 17 17 4 4 4 9 9
 9 9 9 9 9 96 96 96 96 96 96 96 96 17 17 17 17 17 17 17
 4 4 4 9 9 9 9 9 9 9 9 96 96 96 96 96 96 17 17 17
 17 17 17 17 17 4 4 4 9 9 9 9 9 9 9 9 9 96 65 65
 65 21 17 17 17 17 17 17 17 17 4 60 60 9 9 9 9 9 9 9
 9 9 65 65 21 21 21 34 34 34 17 17 17 17 17 60 60 9 9 9
 9 9 9 9 62 62 9 9 21 21 21 21 34 34 34 34 17 17 17 17
 60 60 60 9 9 9 9 9 62 62 62 62 62 21 21 21 21 34 34 34
 34 34 17 17 60 60 60 60 66 9 9 9 9 62 62 62 62 21 21 21
 21 21 34 34 34 34 34 34 34 60 66 66 66 66 66 66 9 9 9 9
 86 86 86 86 21 21 21 34 34 34 34 34 34 40 40 66 66 66 66 66
 66 66 9 9 86 86 86 86 86 21 21 10 10 34 34 34 40 40 40 40
 66 66 66 66 66 66 66 66 37 86 86 86 86 86 86 10 10 10 10 40
 40 40 40 40 40 66 66 66 66 66 66 66 66 37 86 86 86 86 86 86
 10 10 10 40 40 40 40 40 40 40 66 66 66 66 66 66 66 37 37 37
 37 86 86 86 86 10 10 10 40 40 40 40 40 40 40 52 52 66 66 66
 66 66 37 37 37 37 37 37 37 37 37 56 40 40 40 40 40 40 40 40
 52 52 52 66 66 66 66 37 37 37 37 37 37 37 37 35 56 56 56 40
 40 40 40 40 52 52 52 52 66 66 66 66 37 37 37 37 37 37 37 35
 35 56 56 56 56 40 40 40 25 25 25 25 25 25 25 66 77 77 77 77
 37 37 37 35 35 35 56 56 56 56 40 40 40 25 25 25 25 25 25 25
 25 77 77 77 77 77 64 64 6 6 6 6 56 56 53 53 53 25 25 25
 25 25 25 25 25 28 28 28 77 77 77 64 64 6 6 6 6 78 78 53
 23 23 25 25 25 25 25 25 25 25 28 28 28 28 77 77 64 64 6 6
 6 78 78 78 23 23 23 23 25 25 25 25 25 25 28 28 28 28 77 77
 77 77 77 78 78 78 78 78 78 78 23 23 23 25 25 25 25 25 25 28
 28 28 28 28 28 77 77 89 89 78 78 78 78 78 78 23 23 23 25 25
 25 25 72 72 28 28 28 28 28 28 28 89 89 89 78 78 78 78 78 78
 23 23 23 83 83 92 92 72 72 28 28 28 28 28 28 28 89 89 89 89
 78 78 78 78 78 23 23 17 17 17 92 92 92 72 72 28 28 28 28 28
 96 96 96 96 96 96 78 78 78 78 17 17 17 17 17 92 92 92 92 72
 45 28 28 28 28 96 96 96 96 96 96 78 78 78 17 17 17 17 17 17
 92 92 92 92 45 45 9 9 9 9 9 96 96 96 96 96 96 17 17 17
 17 17 17 17 17 4 4 92 45 45 45 9 9 9 9 9 65 65 65 65
 65 65 17 17 17 17 17 17 17 17 4 4 4 9 9 9 9 9 9 9
 9 9 65 65 65 65 65 65 17 17 17 17 17 17 17 4 60 60 9 9
 9 9 9 9 9 9 9 65 65 65 65 65 34 34 34 17 17 17 17 17
 60 60 9 9 9 9 9 9 9 62 62 65 65 65 21 21 21 34 34 34
 34 17 17 17 17 60 60 60 9 9 9 9 9 62 62 62 62 65 21 21
 21 21 34 34 34 34 34 17 17 17 60 60 60 9 9 9 9 9 62 62
 62 62 21 21 21 21 21 34 34 34 34 34 34 34 40 61 66 66 66 66
 66 9 9 62 62 86 86 86 86 21 21 21 34 34 34 34 34 40 40 40
 66 66 66 66 66 66 66 9 86 86 86 86 86 86 21 21 21 34 34 40
 40 40 40 40 40 66 66 66 66 66 66 66 66 86 86 86 86 86 86 86
 10 10 10 40 40 40 40 40 40 40 66 66 66 66 66 66 66 66 37 86
 86 86 86 86 86 10 10 40 40 40 40 40 40 40 40 66 66 66 66 66
 66 66 37 37 37 86 86 86 86 86 35 40 40 40 40 40 40 40 40 40
 52 52 66 66 66 66 66 37 37 37 37 37 37 37 35 35 56 40 40 40
 40 40 40 40 40 52 52 52 66 66 66 66 37 37 37 37 37 37 35 35
 35 56 56 56 40 40 40 40 40 40 52 52 52 66 66 66 66 77 77 37
 37 37 37 35 35 35 56 56 56 56 40 40 40 40 40 25 25 25 25 25
 66 77 77 77 77 77 77 35 35 35 35 56 56 56 56 40 40 40 40 25
 25 25 25 25 25 31 31 31 77 77 77 77 64 35 35 35 56 56 56 56
 40 40 40 25 25 25 25 25 25 25 31 31 31 77 77 77 77 64 35 35
 35 56 56 56 56 23 23 25 25 25 25 25 25 25 25 28 31 31 77 77
 77 77 64 6 6 78 78 78 78 78 23 23 25 25 25 25 72 72 72 72
 28 28 31 77 77 77 77 77 78 78 78 78 78 78 78 78 23 32 32 25
 72 72 72 72 72 72 28 28 77 77 77 77 3 3 78 78 78 78 78 78
 78 23 32 32 32 72 72 72 72 72 72 28 28 28 28 77 77 3 89 78
 78 78 78 78 78 78 23 32 32 32 72 72 72 72 72 72 28 28 28 28
 28 89 89 89 89 78 78 78 78 78 23 17 17 17 32 92 92 72 72 72
 72 28 28 28 28 96 96 96 96 96 78 78 78 78 78 17 17 17 17 17
 92 92 92 72 72 72 45 28 28 28 96 96 65 65 65 65 78 78 82 82
 17 17 17 17 17 92 92 92 72 45 45 45 9 9 9 65 65 65 65 65
 65 65 82 82 82 17 17 17 17 17 92 92 92 72 45 45 45 9 9 9
 65 65 65 65 65 65 65 82 82 82 17 17 17 17 17 39 39 92 92 45
 45 45 9 9 9 9 65 65 65 65 65 65 82 82 82 17 17 17 17 17
 39 39 92 9 9 9 9 9 9 9 9 65 65 65 65 65 65 65 82 17
 17 17 17 17 39 61 61 61 9 9 9 9 9 9 9 62 65 65 65 65
 65 65 65 34 34 34 17 17 17 39 61 61 61 9 9 9 9 9 9 62
 62 62 65 65 65 65 73 73 34 34 34 34 17 17 39 61 61 61 9 9
 9 9 9 62 62 62 62 65 65 73 73 73 73 34 34 34 34 40 40 40
 61 61 61 66 66 66 9 9 62 62 86 86 86 73 73 73 73 73 34 34
 34 40 40 40 40 61 61 66 66 66 66 66 9 86 86 86 86 86 86 73
 73 73 73 40 40 40 40 40 40 40 40 66 66 66 66 66 66 66 86 86
 86 86 86 86 86 86 73 40 40 40 40 40 40 40 40 40 66 66 66 66
 66 66 66 86 86 86 86 86 86 86 86 40 40 40 40 40 40 40 40 40
 40 66 66 66 66 66 66 37 37 37 86 86 86 59 59 35 40 40 40 40
 40 40 40 40 40 40 66 66 66 66 66 66 37 37 37 37 37 59 59 35
 35 40 40 40 40 40 40 40 40 40 40 52 66 66 66 66 66 37 37 37
 37 37 59 35 35 35 56 56 56 40 40 40 40 40 40 40 52 52 66 66
 66 66 77 77 77 77 77 35 35 35 35 56 56 56 56 40 40 40 40 40
 25 25 25 25 14 14 77 77 77 77 77 77 77 35 35 35 56 56 56 56
 40 40 40 40 40 25 25 25 25 14 31 31 31 77 77 77 77 77 35 35
 35 56 56 56 56 40 40 40 40 25 25 25 25 25 25 31 31 31 77 77
 77 77 77 35 35 35 56 56 56 56 56 40 40 25 25 25 25 25 25 14
 31 31 31 77 77 77 77 77 6 35 78 78 78 78 78 23 23 25 25 25
 72 72 72 72 72 72 14 14 77 77 77 77 3 3 3 78 78 78 78 78
 78 32 32 32 32 72 72 72 72 72 72 72 28 77 77 77 77 3 3 3
 78 78 78 78 78 78 32 32 32 32 72 72 72 72 72 72 72 72 77 77
 77 3 3 3 3 78 78 78 78 78 78 32 32 32 32 72 72 72 72 72
 72 72 72 72 28 3 3 3 3 3 71 71 71 71 71 71 32 32 32 32
 72 72 72 72 72 72 72 72 72 28 3 3 65 65 65 71 71 71 71 71
 71 17 17 17 72 92 92 72 72 72 72 72 72 72 90 65 65 65 65 65
 65 71 71 82 82 82 17 17 17 17 92 92 72 72 72 45 45 9 90 90
 65 65 65 65 65 65 65 82 82 82 82 82 17 17 17 39 92 72 72 45
 45 45 9 90 90 65 65 65 65 65 65 65 82 82 82 82 82 17 17 39
 39 39 72 72 45 45 45 9 9 90 65 65 65 65 65 65 65 82 82 82
 82 17 17 39 39 39 39 1 1 9 9 9 9 9 9 9 65 65 65 65
 65 65 65 82 82 82 17 17 39 39 61 61 61 61 24 24 24 24 24 24
 65 65 65 65 65 65 73 73 70 70 70 17 17 39 39 61 61 61 61 24
 24 24 24 24 24 65 65 65 65 73 73 73 73 70 70 70 34 17 39 39
 61 61 61 61 24 24 24 24 24 24 65 65 65 73 73 73 73 73 70 70
 70 70 40 40 40 61 61 61 61 61 24 24 24 24 24 86 86 65 73 73
 73 73 73 34 40 40 40 40 40 40 61 61 61 61 66 66 24 24 24 59
 59 59 59 73 73 73 73 73 40 40 40 40 40 40 40 40 61 61 66 66
 66 36 66 59 59 59 59 59 59 73 73 73 40 40 40 40 40 40 40 40
 40 66 66 66 36 36 36 66 59 59 59 59 59 59 59 59 40 40 40 40
 40 40 40 40 40 40 66 66 66 36 36 36 36 37 59 59 59 59 59 59
 59 40 40 40 40 40 40 40 40 40 40 66 66 66 36 36 36 36 37 59
 59 59 59 59 59 35 40 40 40 40 40 40 40 40 40 40 52 66 66 66
 66 36 36 37 37 59 59 59 59 35 35 56 56 40 40 40 40 40 40 40
 40 40 52 14 14 14 14 77 77 77 77 59 59 35 35 35 56 56 56 40
 40 40 40 40 40 40 40 14 14 14 14 14 77 77 77 77 77 35 35 35
 35 56 56 56 56 40 40 40 40 40 25 25 14 14 14 14 31 31 77 77
 77 77 77 35 35 35 56 56 56 56 40 40 40 40 40 25 25 14 14 14
 14 31 31 77 77 77 77 77 35 35 35 56 56 56 56 40 40 40 40 40
 25 72 72 14 14 14 14 31 77 77 77 77 77 3 3 78 78 78 78 78
 23 40 40 25 25 72 72 72 72 72 14 14 14 77 77 77 3 3 3 3
 3 3 78 78 78 78 32 32 32 32 72 72 72 72 72 72 72 72 77 77
 3 3 3 3 3 3 71 71 71 71 71 32 32 32 32 72 72 72 72 72
 72 72 72 72 3 3 3 3 3 3 3 71 71 71 71 71 32 32 32 32
 72 72 72 72 72 72 72 72 72 3 3 3 3 3 3 71 71 71 71 71
 71 71 32 32 72 72 72 72 72 72 72 72 72 72 3 3 3 3 3 3
 71 71 71 71 71 71 71 29 72 72 72 72 72 72 72 72 72 72 72 90
 90 65 65 65 65 65 71 71 71 82 82 82 17 17 72 72 72 72 72 72
 72 72 72 90 90 90 65 65 65 65 65 71 71 82 82 82 82 82 82 72
 72 72 72 72 72 45 45 90 90 90 90 65 65 65 65 65 65 82 82 82
 82 82 82 82 39 39 72 72 72 72 45 24 24 90 90 65 65 65 65 65
 65 65 82 82 82 82 82 82 39 39 39 1 1 1 24 24 24 24 24 24
 24 65 65 65 65 65 65 73 82 82 82 82 17 39 39 61 61 61 61 24
 24 24 24 24 24 24 65 65 65 65 73 73 73 70 70 70 82 17 39 39
 61 61 61 61 24 24 24 24 24 24 24 65 65 65 73 73 73 73 70 70
 70 70 70 40 61 61 61 61 61 24 24 24 24 24 24 24 65 65 73 73
 73 73 73 70 70 70 70 40 40 61 61 61 61 61 61 24 24 24 24 24
 59 59 65 73 73 73 73 73 70 40 40 40 40 40 61 61 61 61 61 61
 24 24 24 24 59 59 59 59 59 73 73 73 73 40 40 40 40 40 40 40
 61 61 61 61 36 36 36 24 59 59 59 59 59 59 59 73 73 40 40 40
 40 40 40 40 40 40 61 61 66 36 36 36 36 59 59 59 59 59 59 59
 59 40 40 40 40 40 40 40 40 40 40 40 66 66 36 36 36 36 59 59
 59 59 59 59 59 59 40 40 40 40 40 40 40 40 40 40 40 66 36 36
 36 36 36 59 59 59 59 59 59 59 59 40 40 40 40 40 40 40 40 40
 40 40 66 36 36 36 36 36 59 59 59 59 59 59 59 35 56 40 40 40
 40 40 40 40 40 40 40 14 14 14 14 14 14 77 77 77 59 59 59 35
 35 56 56 40 40 40 40 40 40 40 40 14 14 14 14 14 14 14 77 77
 77 77 59 35 35 35 56 56 56 40 40 40 40 40 40 25 14 14 14 14
 14 14 14 77 77 77 77 77 35 35 35 56 56 56 40 40 40 40 40 40
 25 14 14 14 14 14 14 14 77 77 77 77 77 3 3 35 56 56 56 40
 40 40 40 40 40 72 72 72 14 14 14 14 14 77 77 77 77 3 3 3
 3 3 78 78 78 23 76 76 76 76 72 72 72 72 14 14 14 14 14 3
 3 3 3 3 3 3 3 3 71 71 76 76 76 76 76 72 72 72 72 72
 72 72 72 14 3 3 3 3 3 3 3 3 71 71 71 76 76 76 76 76
 72 72 72 72 72 72 72 72 72 3 3 3 3 3 3 3 71 71 71 71
 71 76 76 76 76 72 72 72 72 72 72 72 72 72 3 3 3 3 3 3
 71 71 71 71 71 71 76 76 76 72 72 72 72 72 72 72 72 72 72 3
 3 3 3 3 3 71 71 71 71 71 71 29 29 29 72 72 72 72 72 72
 72 72 72 72 3 3 3 3 65 65 71 71 71 71 71 29 29 29 29 72
 72 72 72 72 72 72 72 72 46 90 65 65 65 65 65 65 71 71 71 82
 82 29 29 29 72 72 72 72 72 72 72 72 24 90 90 65 65 65 65 65
 65 65 82 82 82 82 82 82 82 39 72 72 1 1 1 24 24 24 24 90
 65 65 65 65 65 65 65 82 82 82 82 82 82 39 39 61 1 1 1 1
 24 24 24 24 24 65 65 65 65 65 65 65 73 82 82 82 82 82 39 39
 61 61 1 1 1 24 24 24 24 24 24 65 65 65 65 65 73 73 70 70
 70 70 70 39 39 61 61 61 61 24 24 24 24 24 24 24 65 65 65 73
 73 73 73 70 70 70 70 70 61 61 61 61 61 61 24 24 24 24 24 24
 24 65 65 73 73 73 73 73 70 70 70 70 40 61 61 61 61 61 61 61
 24 24 24 24 24 24 59 65 73 73 73 73 73 70 40 40 40 40 40 61
 61 61 61 61 61 24 24 24 24 59 59 59 59 59 73 73 73 73 40 40
 40 40 40 40 61 61 61 61 61 61 36 24 24 59 59 59 59 59 59 59
 59 73 40 40 40 40 40 40 40 40 40 61 61 61 36 36 36 59 59 59
 59 59 59 59 59 59 40 40 40 40 40 40 40 40 40 40 61 61 36 36
 36 36 36 59 59 59 59 59 59 59 59 40 40 40 40 40 40 40 40 40
 40 40 61 36 36 36 36 36 59 59 59 59 59 59 59 59 40 40 40 40
 40 40 40 40 40 40 40 14 14 36 36 36 19 59 59 59 59 59 59 59
 59 40 40 40 40 40 40 40 40 40 40 40 14 14 14 14 19 19 19 19
 59 59 59 59 59 35 56 40 40 40 40 40 40 40 40 40 14 14 14 14
 14 14 19 19 19 19 59 59 59 35 35 56 56 40 40 40 40 40 40 40
 40 14 14 14 14 14 14 14 19 19 77 3 77 59 35 3 56 56 56 40
 40 40 40 40 40 14 14 14 14 14 14 14 14 14 77 77 3 3 3 3
 3 3 56 8 8 40 40 40 40 76 72 72 72 14 14 14 14 14 14 77
 3 3 3 3 3 3 3 3 8 8 40 76 76 76 76 76 72 72 72 14
 14 14 14 14 3 3 3 3 3 3 3 3 3 3 3 76 76 76 76 76
 76 72 72 72 72 72 72 72 14 3 3 3 3 3 3 3 3 71 71 71
 76 76 76 76 76 72 72 72 72 72 72 72 72 72 3 3 3 3 3 3
 3 71 71 71 71 76 76 76 76 76 72 72 72 72 72 72 72 72 72 3
 3 3 3 3 3 71 71 71 71 71 29 29 76 76 76 72 72 72 72 72
 72 72 72 72 3 3 3 3 3 3 71 71 71 71 71 29 29 29 29 72
 72 72 72 72 72 72 72 72 46 46 3 3 3 3 3 71 71 71 71 71
 29 29 29 29 72 72 72 72 72 72 72 72 72 46 46 46 65 65 65 65
 71 71 71 71 71 29 29 29 29 72 72 72 72 72 72 72 72 46 46 46
 46 65 65 65 65 65 71 71 71 82 82 29 29 29 72 72 72 1 1 1
 24 24 24 24 46 46 65 65 65 65 65 65 71 82 82 82 82 82 39 39
 61 1 1 1 1 24 24 24 24 24 87 65 65 65 65 65 65 65 82 82
 82 82 82 39 39 61 61 1 1 1 24 24 24 24 24 24 65 65 65 65
 65 65 65 70 70 70 70 70 61 61 61 61 61 61 24 24 24 24 24 24
 24 65 65 65 65 65 65 65 70 70 70 70 18 61 61 61 61 61 61 24
 24 24 24 24 24 24 65 65 65 65 65 65 65 70 70 70 70 18 18 61
 61 61 61 61 61 24 24 24 24 24 24 59 65 73 73 73 73 73 70 40
 40 40 18 18 61 61 61 61 61 61 24 24 24 24 59 59 59 59 59 59
 73 73 40 40 40 40 40 40 40 61 61 61 61 61 61 24 24 24 59 59
 59 59 59 59 59 59 59 40 40 40 40 40 40 40 61 61 61 61 61 36
 36 36 59 59 59 59 59 59 59 59 59 40 40 40 40 40 40 40 40 40
 40 61 61 61 36 36 36 59 59 59 59 59 59 59 59 59 40 40 40 40
 40 40 40 40 40 40 40 61 36 36 19 36 59 59 59 59 59 59 59 59
 59 40 40 40 40 40 40 40 40 40 40 40 14 14 36 19 19 19 19 59
 59 59 59 59 59 59 40 40 40 40 40 40 40 40 40 40 40 14 14 14
 19 19 19 19 19 59 59 59 59 59 59 8 8 40 40 40 40 40 40 40
 40 14 14 14 14 14 19 19 19 19 19 59 59 59 59 3 8 8 8 40
 40 40 40 40 40 14 14 14 14 14 14 14 19 19 19 19 3 3 59 3
 3 3 8 8 8 8 40 40 40 40 14 14 14 14 14 14 14 14 19 19
 3 3 3 3 3 3 3 8 8 8 8 8 40 76 76 72 72 72 14 14
 14 14 14 14 3 3 3 3 3 3 3 3 3 8 8 8 76 76 76 76