# vtk DataFile Version 2.0
Data set from IO Version 6.4.197.9a0dee2
ASCII

DATASET RECTILINEAR_GRID
DIMENSIONS 31 31 31
X_COORDINATES 31 float
-2.866667 2.866667 8.599999 14.333332 20.066666 25.799999 31.533331 37.266666 43.000000 48.733334 54.466667 60.200001 65.933327 71.666664 77.399994 83.133331 88.866661 94.599991 100.333328 106.066658 111.799995 
117.533325 123.266663 129.000000 134.733322 140.466660 146.199997 151.933319 157.666656 163.399994 169.133331 
Y_COORDINATES 31 float
-2.866667 2.866667 8.599999 14.333332 20.066666 25.799999 31.533331 37.266666 43.000000 48.733334 54.466667 60.200001 65.933327 71.666664 77.399994 83.133331 88.866661 94.599991 100.333328 106.066658 111.799995 
117.533325 123.266663 129.000000 134.733322 140.466660 146.199997 151.933319 157.666656 163.399994 169.133331 
Z_COORDINATES 31 float
-2.866667 2.866667 8.599999 14.333332 20.066666 25.799999 31.533331 37.266666 43.000000 48.733334 54.466667 60.200001 65.933327 71.666664 77.399994 83.133331 88.866661 94.599991 100.333328 106.066658 111.799995 
117.533325 123.266663 129.000000 134.733322 140.466660 146.199997 151.933319 157.666656 163.399994 169.133331 
CELL_DATA 27000
SCALARS FeatureIds int 1
LOOKUP_TABLE default
 322 365 365 365 365 316 316 316 135 135 135 135 135 171 171 4 4 4 4 4
 324 324 324 324 324 170 170 170 322 322 322 365 365 365 316 316 316 316 316 135
 135 135 135 135 171 4 4 4 4 4 324 324 324 324 324 170 170 170 170 170
 289 316 316 316 316 316 316 316 316 135 135 135 135 135 171 4 4 4 4 4
 324 324 324 324 324 170 170 170 170 170 289 289 316 316 316 316 316 316 316 135
 135 135 135 135 42 42 42 4 4 4 324 324 324 324 170 170 170 170 170 289
 289 289 316 316 316 316 316 22 22 22 186 186 186 186 42 42 42 42 42 42
 324 324 324 324 170 170 170 170 289 289 289 289 316 316 316 316 22 22 22 22
 186 186 186 186 42 42 42 42 42 42 17 17 17 17 17 303 303 289 289 289
 289 289 289 127 127 198 22 22 22 22 186 186 186 186 42 42 42 42 42 358
 17 17 17 17 17 303 303 289 289 289 289 289 290 290 198 198 198 22 22 59
 59 59 186 42 42 42 42 42 358 358 358 17 17 17 17 303 303 303 289 289
 289 290 290 290 290 198 198 198 59 59 59 59 28 28 42 42 42 42 330 330
 330 17 17 17 17 17 303 303 289 289 290 290 290 290 290 252 252 252 59 59
 59 59 28 28 28 42 42 330 330 330 330 330 17 286 17 17 154 154 154 289
 290 290 290 290 290 372 372 372 390 390 59 59 28 28 28 28 317 317 330 330
 330 330 385 385 385 154 154 154 154 154 126 126 126 126 126 372 372 372 390 390
 390 28 28 28 28 317 317 317 209 209 298 298 385 385 385 154 154 154 82 82
 126 126 126 126 126 126 372 372 146 146 146 28 28 249 249 249 209 209 209 209
 298 298 298 385 385 82 82 82 82 82 75 75 126 126 126 126 372 146 146 146
 146 146 249 249 249 249 209 209 209 209 298 298 298 298 385 82 82 82 82 82
 75 75 75 126 126 126 321 321 146 146 146 146 249 249 249 249 209 209 209 209
 298 298 298 298 85 85 85 82 82 82 75 75 75 266 266 126 321 321 321 321
 146 146 249 249 249 209 209 209 209 209 298 298 298 298 85 85 85 85 82 82
 158 75 266 266 266 241 321 321 321 321 321 321 249 249 402 402 402 402 402 209
 298 298 298 85 85 85 85 85 158 158 158 75 266 266 266 241 241 321 321 321
 142 142 142 402 402 402 402 402 402 336 336 336 240 240 240 85 85 85 158 158
 158 158 266 103 103 103 103 142 142 142 142 142 142 49 49 49 402 402 336 336
 336 336 240 240 240 240 85 85 158 158 158 158 103 103 103 103 103 142 142 142
 142 142 142 142 49 49 49 336 336 336 336 336 240 240 240 240 226 226 226 158
 158 195 103 103 103 103 103 142 142 142 142 142 142 142 49 49 49 336 336 336
 336 336 240 240 240 294 226 226 226 226 116 84 84 84 84 84 142 142 142 142
 142 142 142 142 49 95 95 336 336 336 336 336 294 294 294 294 226 226 226 226
 116 268 84 84 84 84 142 142 142 142 142 142 142 142 95 95 95 95 95 30
 30 30 294 294 294 294 294 226 226 226 116 268 268 84 84 84 142 142 142 142
 142 142 142 95 95 95 95 95 95 30 30 30 294 294 294 294 294 226 116 116
 116 268 268 268 33 33 33 104 142 142 142 142 34 95 95 95 95 95 95 30
 30 30 30 294 294 294 294 116 116 116 116 116 268 268 33 33 104 104 104 142
 142 142 34 34 95 95 95 95 95 30 30 30 30 294 294 294 294 116 116 116
 116 116 329 329 329 329 104 104 104 104 309 309 171 171 171 95 95 95 95 114
 114 114 30 125 254 254 254 116 116 116 116 329 329 329 329 329 329 104 104 309
 309 309 171 171 171 4 4 4 4 114 114 114 125 125 254 254 254 8 116 116
 322 329 329 365 329 329 329 329 309 309 309 309 171 171 171 4 4 4 4 4
 114 114 114 125 254 254 254 8 322 322 322 365 365 365 365 365 365 365 309 309
 309 309 171 171 171 4 4 4 4 4 114 324 324 324 324 254 254 322 322 322
 322 329 329 329 329 329 316 316 309 309 135 135 135 171 171 171 4 4 4 4
 324 324 324 324 324 170 170 170 322 322 322 329 329 329 316 316 316 316 316 135
 135 135 135 135 171 171 4 4 292 4 324 324 324 324 324 170 170 170 170 322
 289 316 316 316 316 316 316 316 316 135 135 135 135 135 171 171 4 4 292 4
 324 324 324 324 170 170 170 170 170 170 289 316 316 316 316 316 316 316 316 135
 135 135 135 135 42 42 42 42 42 232 324 324 324 324 170 170 170 170 170 289
 289 289 316 316 316 316 316 316 316 135 186 186 186 186 42 42 42 42 42 42
 264 264 264 324 170 170 170 170 289 289 289 289 316 316 316 316 316 316 22 22
 186 186 186 42 42 42 42 42 42 42 264 264 264 17 303 303 303 289 289 289
 289 289 289 127 198 198 198 22 22 22 186 186 186 42 42 42 42 42 358 358
 358 264 264 17 303 303 303 303 289 289 289 289 290 290 198 198 198 198 22 59
 59 59 59 42 42 42 42 42 358 358 358 17 17 17 303 303 303 303 289 289
 289 290 290 290 198 198 198 198 59 59 59 59 59 59 42 42 42 42 330 330
 330 330 17 286 17 303 303 303 303 289 290 290 290 290 252 252 252 252 59 59
 59 59 59 59 59 42 42 330 330 330 330 330 286 286 286 154 154 154 154 154
 290 290 290 290 372 372 372 372 390 390 59 59 59 59 28 317 317 317 330 330
 330 330 385 286 286 154 154 154 154 154 126 126 126 126 372 372 372 372 390 390
 390 59 59 28 28 317 317 317 317 330 298 298 385 385 385 154 154 154 154 154
 75 126 126 126 126 372 372 372 146 146 146 59 59 249 249 317 317 317 209 298
 298 298 298 385 385 154 82 82 82 82 75 75 75 126 126 126 372 146 146 146
 146 146 249 249 249 249 209 209 209 209 298 298 298 298 385 82 82 82 82 82
 75 75 75 126 126 126 321 321 146 146 146 146 249 249 249 209 209 209 209 209
 298 298 298 298 298 82 82 82 82 82 75 75 75 266 266 321 321 321 321 146
 146 146 249 258 258 258 209 209 209 209 298 298 298 298 85 85 85 82 82 82
 75 75 75 266 266 241 321 321 321 321 237 237 237 258 258 258 402 181 181 209
 298 298 298 298 85 85 85 85 158 158 158 75 75 266 103 241 241 321 321 142
 237 237 237 49 49 402 402 181 181 336 336 298 240 240 240 85 85 85 158 158
 158 158 103 103 103 103 103 142 142 142 142 142 142 49 49 49 49 402 336 336
 336 336 240 240 240 240 85 226 158 158 158 195 103 103 103 103 103 142 142 142
 142 142 142 142 49 49 49 336 336 336 336 336 240 240 240 240 226 226 226 226
 195 195 195 103 103 103 103 142 142 142 142 142 142 142 49 49 49 336 336 336
 336 336 240 240 294 294 226 226 226 226 116 195 195 84 84 84 142 142 142 142
 142 142 142 142 49 49 95 336 336 336 30 30 294 294 294 294 226 226 226 226
 116 268 268 84 84 33 142 142 142 142 142 142 142 142 95 95 95 95 30 30
 30 30 294 294 294 294 226 226 226 226 116 268 268 268 33 33 33 142 142 142
 142 142 142 34 95 95 95 95 95 30 30 30 30 294 294 294 226 226 116 116
 116 268 268 268 33 33 33 33 142 142 142 142 34 34 34 95 95 95 95 30
 30 30 30 294 294 294 294 116 116 116 116 268 268 268 33 33 33 33 33 142
 142 34 34 34 34 95 95 95 95 30 30 30 30 294 294 294 116 116 116 116
 116 116 329 329 329 33 33 33 33 309 309 34 34 34 34 34 95 95 130 114
 114 125 125 125 254 254 254 116 116 116 116 329 329 329 329 329 329 33 309 309
 309 309 171 171 171 4 4 4 130 130 130 125 125 125 254 254 254 116 116 116
 322 329 329 329 329 329 329 329 309 309 309 309 171 171 171 171 4 4 130 130
 130 125 125 125 254 254 254 322 322 322 322 329 329 329 329 329 329 329 309 309
 309 309 171 171 171 171 4 4 130 130 130 324 125 125 125 254 254 322 322 322
 322 329 329 329 329 329 316 316 309 309 309 135 135 171 171 171 292 292 292 292
 292 324 324 324 324 170 170 170 322 322 322 329 329 329 316 316 316 316 316 135
 135 135 135 135 171 171 292 292 292 292 292 324 324 324 324 170 170 170 170 183
 183 329 316 316 316 316 316 316 316 135 135 135 135 135 171 292 292 292 292 292
 232 324 324 324 170 170 170 170 170 183 183 316 316 316 316 316 316 316 316 135
 135 135 135 135 171 292 292 292 292 232 232 264 264 201 170 170 170 170 170 183
 289 316 316 316 316 316 316 316 316 316 135 135 135 66 42 42 42 42 323 323
 264 264 264 264 201 170 170 170 289 289 289 289 316 316 316 316 316 316 316 316
 186 186 66 66 42 42 42 42 323 323 264 264 264 264 264 303 303 303 289 289
 289 289 281 281 281 198 198 316 316 59 59 59 59 42 42 42 42 323 323 358
 264 264 264 264 303 303 303 303 289 289 380 380 380 281 198 198 198 198 360 59
 59 59 59 59 42 42 42 323 323 358 358 17 17 17 303 303 303 303 303 289
 380 380 380 380 198 198 198 360 360 59 59 59 59 59 59 42 42 323 330 330
 330 330 17 286 303 303 303 303 303 289 380 380 380 380 252 252 360 360 360 59
 59 59 59 59 59 9 42 330 330 330 330 330 286 286 286 154 154 154 154 154
 380 380 380 380 372 372 372 360 390 59 59 59 59 59 59 317 317 317 330 330
 330 298 385 385 385 154 154 154 154 154 380 380 380 126 372 372 372 360 390 390
 59 59 59 59 59 317 317 317 317 330 298 298 385 385 385 154 154 154 154 154
 75 380 126 126 372 372 372 146 146 146 146 59 59 59 258 317 317 317 317 298
 298 298 298 385 385 154 154 82 82 82 75 75 75 126 126 136 372 146 146 146
 146 59 258 258 258 258 209 209 209 298 298 298 298 298 385 82 82 82 82 82
 75 75 75 126 136 136 136 146 146 146 146 146 258 258 258 258 258 209 209 298
 298 298 298 298 298 82 82 82 82 82 75 75 75 136 136 136 136 136 321 146
 237 237 258 258 258 258 258 209 209 197 197 298 298 298 86 82 82 82 82 82
 75 75 75 136 136 136 136 321 321 237 237 237 237 258 258 258 181 181 181 181
 197 197 197 86 86 86 85 82 82 82 158 75 75 136 136 136 136 321 142 237
 237 237 237 269 258 181 181 181 181 181 197 197 86 86 86 86 86 86 158 158
 158 195 195 103 103 103 103 142 142 142 142 237 237 269 49 49 181 181 181 181
 336 70 240 86 86 86 86 226 226 158 195 195 195 195 103 103 103 142 142 142
 142 142 142 269 49 49 49 336 336 336 336 336 240 86 86 86 226 226 226 226
 195 195 195 195 103 103 103 142 142 142 142 142 142 269 49 49 49 336 336 336
 336 336 240 86 86 86 226 226 226 226 138 195 195 195 103 103 142 142 142 142
 142 142 142 142 49 49 49 336 336 336 30 30 294 294 294 294 226 226 226 226
 138 138 138 33 33 33 33 142 142 142 142 142 142 142 34 95 95 95 30 30
 30 30 294 294 294 294 226 226 226 226 138 138 138 33 33 33 33 33 142 142
 142 142 34 34 34 95 95 95 30 30 30 30 30 294 294 294 226 226 116 116
 116 268 268 33 33 33 33 33 33 142 142 34 34 34 34 34 95 95 95 30
 30 30 30 294 389 389 389 116 116 116 116 116 268 33 33 33 33 33 33 142
 142 34 34 34 34 34 95 95 95 30 30 30 125 125 389 389 389 116 116 116
 116 116 329 329 33 33 33 33 33 33 34 34 34 34 34 34 34 130 130 130
 30 125 125 125 125 254 254 116 116 116 116 329 329 329 329 329 33 33 309 309
 309 309 34 34 34 34 4 130 130 130 130 125 125 125 125 254 254 116 116 116
 322 329 329 329 329 329 329 329 309 309 309 309 171 171 171 171 4 130 130 130
 130 125 125 125 125 254 254 322 322 322 322 329 329 329 329 329 329 329 309 309
 309 309 171 171 171 171 4 4 130 130 130 125 125 125 125 254 254 322 322 322
 399 399 329 329 329 329 316 316 309 309 309 135 135 171 171 81 292 292 292 232
 232 232 201 201 201 201 170 183 183 183 399 399 399 329 329 316 316 316 135 135
 135 135 135 135 171 81 292 292 292 232 232 232 201 201 201 201 170 183 183 183
 183 399 399 316 316 316 316 316 316 135 135 135 135 135 81 81 292 292 292 232
 232 232 201 201 201 201 201 183 183 183 183 399 316 316 316 316 316 316 316 135
 135 135 135 66 81 81 292 292 232 232 232 232 201 201 201 201 201 183 183 183
 183 316 316 316 316 316 316 316 316 316 135 135 66 66 66 66 42 323 323 232
 218 218 218 201 201 201 333 333 183 183 289 281 281 281 316 316 316 316 316 400
 400 66 66 66 66 66 323 323 323 323 218 218 264 264 201 303 303 333 333 333
 380 380 281 281 281 113 113 316 316 400 400 59 66 66 66 42 323 323 323 323
 218 218 264 264 264 303 303 303 333 333 380 380 380 281 281 113 113 113 360 59
 59 59 59 66 66 42 323 323 323 323 358 218 264 264 311 311 303 303 303 380
 380 380 380 380 380 113 360 360 360 59 59 59 59 59 9 9 323 323 323 18
 18 18 26 286 311 311 303 303 348 380 380 380 380 380 380 113 360 360 360 59
 59 59 59 59 9 9 9 330 330 18 18 330 26 286 286 154 348 348 348 348
 380 380 380 380 380 380 360 360 288 59 59 59 59 9 9 9 9 317 330 18
 18 298 385 385 385 154 154 348 348 348 380 380 380 380 380 372 372 288 288 288
 59 59 59 9 9 9 9 317 317 330 298 298 298 385 385 154 154 348 348 348
 380 380 380 380 372 372 372 288 288 288 288 59 59 258 258 258 317 317 317 298
 298 298 298 385 385 348 348 348 348 348 75 75 75 136 136 136 136 146 146 146
 146 59 258 258 258 258 258 209 209 298 298 298 298 298 388 388 82 82 82 82
 75 75 75 136 136 136 136 136 381 381 381 258 258 258 258 258 258 258 209 197
 197 197 197 197 388 388 388 82 82 82 75 75 75 136 136 136 136 136 381 381
 381 381 258 258 258 258 258 258 197 197 197 197 197 197 388 388 388 388 82 82
 75 75 75 136 136 136 136 136 381 381 237 237 237 258 258 258 181 181 181 197
 197 197 197 86 86 86 388 388 82 82 214 195 195 29 29 29 29 29 79 79
 237 237 237 269 269 181 181 181 181 181 197 197 197 86 86 86 86 86 11 158
 195 195 195 29 29 29 29 29 79 79 237 237 237 269 269 181 181 181 181 181
 70 70 70 86 86 86 86 11 11 11 195 195 195 195 29 29 29 142 142 142
 142 142 269 269 269 269 49 181 336 70 70 70 70 86 86 86 86 11 11 11
 195 195 195 195 29 29 29 142 142 142 142 142 269 269 269 269 49 221 336 70
 70 70 70 86 86 244 244 226 226 226 273 195 195 195 29 29 142 142 142 142
 142 142 269 269 269 269 49 221 336 70 70 70 270 244 244 244 244 226 226 273
 273 138 273 273 33 33 33 142 142 142 142 142 142 269 269 269 95 95 206 30
 30 30 124 244 244 244 244 226 226 273 138 138 138 273 33 33 33 33 142 142
 142 142 34 34 34 34 95 95 206 206 30 30 30 58 58 58 58 226 116 273
 273 138 273 33 33 33 33 33 33 117 117 34 34 34 34 34 95 95 206 30
 30 30 30 58 58 389 389 116 116 116 116 273 273 33 33 33 33 33 33 117
 117 34 34 34 34 34 34 247 247 30 30 30 125 125 389 389 389 407 116 116
 116 116 329 329 33 33 33 33 33 117 117 34 34 34 34 34 247 247 247 247
 125 125 125 125 125 389 389 116 116 116 116 329 329 329 329 329 33 33 33 309
 309 309 34 34 34 34 247 247 130 130 130 125 125 125 125 125 254 116 116 116
 322 329 329 329 329 329 329 33 309 309 309 309 309 171 171 171 247 247 130 130
 130 125 125 125 125 125 125 322 322 322 322 329 329 329 329 329 329 329 309 309
 309 309 171 171 171 171 247 292 130 130 130 125 125 125 125 125 125 322 322 322
 399 399 399 329 329 329 329 346 346 309 27 27 27 27 81 81 81 292 232 232
 232 232 201 201 201 201 183 183 183 183 399 399 399 399 329 316 316 316 346 27
 27 27 27 27 81 81 81 292 232 232 232 232 201 201 201 201 201 183 183 183
 183 399 399 399 316 316 316 316 316 27 27 27 27 27 81 81 81 292 232 232
 232 232 201 201 201 201 201 183 183 183 183 399 399 399 316 316 316 316 316 27
 27 27 27 66 81 81 81 232 232 232 232 232 201 201 201 201 201 183 183 183
 183 399 399 316 316 316 316 316 400 400 400 66 66 66 66 66 323 323 232 232
 90 90 90 201 201 201 333 333 333 183 333 281 281 281 113 113 113 316 400 400
 400 66 66 66 66 66 323 323 323 323 90 90 90 90 201 333 333 333 333 333
 380 380 281 281 113 113 113 113 400 400 400 66 66 66 66 66 323 323 323 323
 90 90 90 264 311 311 311 333 333 333 380 380 380 281 113 113 113 113 400 400
 400 400 66 66 66 323 323 323 323 323 90 90 90 311 311 311 311 333 333 380
 380 380 380 380 113 113 113 360 360 400 394 394 59 9 9 9 323 323 323 139
 18 26 26 26 311 311 311 311 380 380 380 380 380 380 380 113 360 360 360 288
 394 394 59 9 9 9 9 323 139 18 18 26 26 26 311 348 348 348 348 380
 380 380 380 380 380 380 360 288 288 288 288 394 59 9 9 9 9 9 139 139
 18 26 26 26 348 348 348 348 348 348 380 380 380 380 380 140 140 288 288 288
 288 288 59 9 9 9 9 9 211 211 298 298 298 385 348 348 348 348 348 348
 380 380 380 380 140 140 140 140 288 288 288 288 59 9 9 9 9 211 211 211
 211 298 298 197 348 348 348 348 348 348 380 380 380 380 140 140 140 140 288 288
 288 288 258 258 258 258 258 211 211 211 197 197 197 197 388 388 348 348 348 348
 75 75 75 136 136 136 136 381 381 381 381 381 258 258 258 258 258 258 211 197
 197 197 197 197 388 388 388 388 82 82 75 75 223 136 136 136 136 381 381 381
 381 381 258 258 258 258 258 258 159 197 197 197 197 197 388 388 388 388 388 388
 214 223 223 136 136 136 136 381 381 381 381 237 237 258 258 258 181 181 181 159
 197 197 197 197 86 388 388 388 388 388 214 214 29 29 29 29 29 29 79 79
 237 237 237 269 269 181 181 181 181 159 197 197 197 86 86 86 86 388 11 11
 214 195 29 29 29 29 29 29 79 79 79 237 269 269 269 269 181 181 181 70
 70 70 70 86 86 86 86 11 11 11 195 195 195 195 29 29 29 29 79 79
 79 269 269 269 269 269 221 221 221 70 70 70 70 86 86 86 11 11 11 11
 273 195 195 195 29 29 29 29 79 79 79 269 269 269 269 269 221 221 221 70
 70 70 70 244 244 244 244 11 11 11 273 273 195 195 29 29 29 142 142 142
 142 142 269 269 269 269 221 221 221 206 270 270 270 244 244 244 244 244 11 273
 273 273 273 273 33 33 33 33 142 142 142 142 305 305 305 269 95 206 206 206
 206 270 124 244 244 244 244 244 244 273 273 273 273 273 33 33 33 33 33 117
 117 142 305 305 305 305 206 206 206 206 206 124 124 58 58 58 58 244 273 273
 273 273 273 273 33 33 33 33 117 117 117 34 34 34 34 34 34 206 206 206
 206 124 124 58 58 58 58 407 407 273 273 273 273 33 33 33 33 33 117 117
 117 34 34 34 34 34 247 247 247 247 206 124 124 58 58 389 407 407 407 273
 273 273 273 33 33 33 33 33 117 117 117 34 34 34 34 34 247 247 247 247
 247 125 318 318 318 389 407 407 407 116 273 329 329 329 263 263 263 33 117 117
 117 23 23 23 23 23 247 247 247 247 247 125 318 318 318 318 407 407 407 122
 329 329 329 329 329 263 263 263 117 309 309 23 23 23 23 23 247 247 247 247
 232 125 318 318 318 125 125 122 122 122 399 399 329 329 329 329 329 329 346 309
 309 27 23 23 23 81 247 247 232 232 232 232 318 318 318 125 122 122 122 322
 399 399 399 399 406 406 406 346 346 346 27 27 27 27 81 81 81 232 232 232
 232 232 109 109 109 201 201 183 183 183 399 399 399 399 406 406 316 346 346 27
 27 27 27 27 81 81 81 232 232 232 232 232 109 201 201 201 201 183 183 183
 399 399 399 399 316 374 316 316 27 27 27 27 27 27 81 81 81 232 232 232
 232 232 201 201 201 201 201 183 183 183 183 399 399 399 374 374 374 374 27 27
 27 27 27 66 81 81 81 232 232 232 232 232 201 201 201 201 201 333 183 183
 333 399 399 399 316 374 316 231 400 400 400 66 66 66 66 66 81 232 232 232
 90 90 90 201 201 201 333 333 333 333 333 333 281 281 113 113 113 113 400 400
 400 400 66 66 66 66 66 323 323 90 90 90 90 90 333 333 333 333 333 333
 380 380 380 281 113 113 113 113 400 400 400 400 66 66 66 66 323 323 323 90
 90 90 90 90 311 311 311 333 333 333 380 380 380 380 113 113 113 113 400 400
 400 400 66 66 66 66 323 323 323 323 90 90 90 311 311 311 311 333 333 333
 380 380 380 380 113 113 113 113 400 400 394 394 394 9 9 9 9 323 139 139
 139 26 26 311 311 311 311 333 333 380 380 380 380 380 380 113 113 113 288 288
 394 394 394 9 9 9 9 9 139 139 26 26 26 26 311 311 348 348 348 380
 380 380 380 380 380 140 140 288 288 288 288 394 394 9 9 9 9 9 139 139
 26 26 26 26 311 348 348 348 348 348 380 380 380 380 140 140 140 140 288 288
 288 288 9 9 9 9 9 211 211 211 211 26 26 26 348 348 348 348 348 348
 380 380 380 380 140 140 140 140 288 288 288 288 9 9 9 9 9 211 211 211
 211 211 197 197 348 348 348 348 348 348 380 380 380 380 140 140 140 140 288 288
 288 288 258 258 258 258 258 211 211 211 197 197 197 197 388 388 348 348 348 348
 87 87 87 223 140 140 140 140 381 381 381 381 258 258 258 258 258 211 211 197
 197 197 197 197 388 388 388 388 348 348 87 223 223 223 223 223 136 381 381 381
 381 381 258 258 258 258 258 258 159 159 197 197 197 197 388 388 388 388 388 348
 214 223 223 223 223 223 287 287 381 381 381 381 258 258 258 258 181 181 159 159
 197 197 197 197 388 388 388 388 388 214 214 214 223 223 29 29 29 287 79 79
 79 269 269 269 269 269 181 181 159 159 197 197 197 86 86 86 86 388 11 214
 214 214 214 29 29 29 29 29 79 79 79 269 269 269 269 269 221 221 221 70
 70 70 70 86 86 86 11 11 11 214 214 214 245 29 29 29 29 29 79 79
 79 269 269 269 269 269 221 221 221 70 70 70 70 70 86 86 11 11 11 214
 273 273 245 245 29 29 29 29 79 79 79 269 269 269 269 269 221 221 221 70
 70 70 70 244 244 244 244 11 11 11 273 273 273 245 245 29 29 29 79 79
 79 269 269 269 269 269 221 221 206 206 270 270 270 244 244 244 244 244 11 273
 273 273 273 245 245 33 33 33 142 142 142 269 305 305 305 269 206 206 206 206
 206 270 270 244 244 244 244 244 244 273 273 273 273 273 33 33 33 33 117 117
 117 117 305 305 305 305 206 206 206 206 206 124 124 58 58 58 58 244 273 273
 273 273 273 273 33 33 33 33 117 117 117 117 305 305 305 34 247 206 206 206
 206 124 124 58 58 58 58 407 407 273 273 273 273 273 151 33 33 33 117 117
 117 117 34 34 34 34 247 247 247 206 206 124 124 58 58 58 407 407 407 273
 273 273 273 273 263 263 263 117 117 117 117 117 23 23 23 23 247 247 247 247
 247 96 318 318 318 58 407 407 407 122 122 122 329 263 263 263 263 263 117 117
 117 23 23 23 23 23 247 247 247 247 96 96 318 318 318 318 122 122 122 122
 122 122 329 263 263 263 263 263 346 346 346 23 23 23 23 247 247 247 247 247
 247 96 318 318 318 318 122 122 122 122 399 399 399 406 406 406 263 346 346 346
 346 27 23 23 23 81 247 247 232 232 232 232 318 318 318 109 122 122 122 122
 399 399 399 406 406 406 406 346 346 346 346 27 27 7 81 81 81 232 232 232
 232 232 109 109 109 109 122 122 122 122 399 399 399 399 406 374 374 346 346 346
 27 27 27 27 81 81 81 232 232 232 232 232 109 109 109 109 201 183 183 188
 399 399 399 399 374 374 374 374 346 27 27 27 27 27 81 81 81 232 232 232
 232 232 109 109 201 201 333 183 183 183 399 399 399 399 374 374 374 374 400 400
 27 27 27 66 81 81 81 232 232 232 232 232 109 201 201 201 333 333 333 183
 333 399 399 374 374 374 374 231 400 400 400 400 66 66 66 66 81 337 337 232
 90 90 90 201 201 333 333 333 333 333 333 333 380 164 164 113 231 231 400 400
 400 400 66 66 66 66 66 337 337 337 90 90 90 90 333 333 333 333 333 333
 333 380 380 380 113 113 113 231 400 400 400 400 66 66 66 66 337 337 337 337
 90 90 90 90 311 311 333 333 333 333 380 380 380 380 113 113 113 113 400 400
 400 400 66 66 66 413 413 337 337 337 337 90 90 311 311 311 311 333 333 333
 380 380 380 380 113 113 113 113 400 400 400 394 394 9 9 9 413 413 413 139
 26 26 26 26 311 311 311 333 333 380 380 380 380 380 380 113 113 113 288 288
 394 394 394 9 9 9 413 413 139 139 26 26 26 26 311 311 348 348 348 380
 380 380 380 380 380 140 140 288 288 288 288 394 394 9 9 9 413 413 413 139
 26 26 26 26 348 348 348 348 348 348 380 380 380 380 140 140 140 140 288 288
 288 288 9 9 9 9 413 413 211 211 211 26 26 348 348 348 348 348 348 348
 87 87 87 380 140 140 140 140 288 288 288 288 288 9 9 9 413 211 211 211
 211 211 197 197 348 348 348 348 348 348 87 87 87 380 140 140 140 140 288 288
 288 288 258 258 258 258 258 211 211 211 211 197 197 197 388 348 348 348 348 348
 87 87 87 223 223 140 140 140 381 381 381 110 110 110 258 258 258 211 211 211
 197 197 197 197 388 388 388 388 348 348 87 87 223 223 223 223 140 381 381 381
 381 110 110 110 110 110 258 211 159 159 197 197 197 197 388 388 388 388 388 348
 214 214 223 223 223 223 287 287 381 381 381 381 110 110 110 110 110 181 159 159
 197 197 197 197 388 388 388 388 388 214 214 214 223 223 223 29 287 287 287 79
 79 269 269 269 269 269 181 181 159 159 197 197 197 56 56 56 56 56 214 214
 214 214 214 157 29 29 29 287 79 79 79 269 269 269 269 269 221 221 221 70
 70 70 70 56 56 56 56 11 11 214 214 214 245 245 29 29 29 29 79 79
 79 269 269 269 269 269 221 221 221 70 70 70 70 56 56 56 56 11 11 214
 273 245 245 245 245 29 29 29 79 79 79 269 269 269 269 269 221 221 221 70
 70 70 70 56 56 56 56 11 11 214 273 273 245 245 245 245 29 29 79 79
 79 269 269 269 269 269 221 221 221 70 70 270 270 244 244 244 244 244 11 273
 273 273 273 245 245 245 33 33 387 387 387 387 305 305 305 269 206 206 206 206
 206 270 270 244 244 244 244 244 244 273 273 273 273 245 245 151 151 151 387 387
 387 387 305 305 305 305 206 206 206 206 206 124 124 58 58 58 244 244 273 273
 273 273 273 273 151 151 151 151 117 117 117 117 305 305 305 305 247 206 206 206
 206 124 124 58 58 58 58 407 407 273 273 273 273 151 151 151 151 151 117 117
 117 117 23 23 23 247 247 247 247 206 206 124 124 318 58 58 407 407 407 273
 122 273 273 151 151 151 151 151 117 117 117 117 23 23 23 23 247 247 247 247
 96 96 318 318 318 58 407 407 407 122 122 122 122 263 263 263 263 263 346 346
 346 23 23 23 23 23 247 247 247 247 96 96 96 318 318 318 122 122 122 122
 122 122 122 406 406 263 263 346 346 346 346 346 23 23 23 23 247 247 247 247
 96 96 318 318 318 122 122 122 122 122 122 399 399 406 406 406 263 346 346 346
 346 346 7 7 7 81 247 247 232 232 232 232 109 109 109 109 122 122 122 122
 122 112 112 48 48 48 48 346 346 346 346 346 7 7 7 81 81 232 232 232
 232 109 109 109 109 109 122 122 122 122 188 399 112 48 48 374 374 346 346 346
 346 27 27 7 81 81 81 232 232 232 232 109 109 109 109 109 122 122 188 188
 399 399 112 374 374 374 374 374 346 346 27 27 27 27 81 81 81 232 232 232
 232 109 109 109 109 109 333 333 333 188 333 399 112 374 374 374 374 374 374 400
 400 27 27 66 81 81 141 141 232 232 232 109 109 109 109 333 333 333 333 333
 333 333 112 374 374 374 374 231 231 400 400 400 66 66 66 141 141 337 337 337
 90 90 90 201 333 333 333 333 333 333 333 333 164 164 164 164 231 231 231 400
 400 400 66 66 66 66 337 337 337 337 337 90 90 333 333 333 333 333 333 333
 333 333 380 164 164 164 231 231 400 400 400 400 400 66 66 337 337 337 337 337
 337 90 90 333 333 333 333 333 333 333 380 380 380 380 113 113 113 400 400 400
 400 400 400 412 412 413 413 337 337 337 337 337 118 333 333 333 333 333 333 333
 380 380 380 380 380 113 113 113 400 400 400 400 412 412 412 413 413 413 413 413
 413 26 26 26 333 333 333 333 333 333 380 380 380 380 380 113 113 113 288 288
 394 412 412 412 412 413 413 413 413 413 413 26 26 26 333 333 348 348 348 348
 380 380 380 380 380 140 140 288 288 288 288 412 412 412 412 413 413 413 413 413
 413 26 26 26 348 348 348 348 348 348 380 380 380 380 140 140 140 140 288 288
 288 288 412 9 9 413 413 413 413 413 413 375 375 375 348 348 348 348 348 348
 87 87 87 380 140 140 140 140 288 288 288 288 110 110 9 413 413 211 211 211
 211 375 375 121 121 348 348 348 348 348 87 87 87 87 140 140 140 140 288 288
 288 110 110 110 110 258 413 211 211 211 211 375 375 121 121 348 348 348 348 348
 87 87 87 223 15 15 15 15 381 381 381 110 110 110 110 110 72 211 211 211
 197 197 197 197 388 295 295 295 348 348 87 87 223 223 223 15 15 15 381 381
 381 110 110 110 110 110 72 72 72 197 197 197 197 197 388 388 388 388 388 214
 214 214 223 223 223 223 287 287 287 381 381 110 110 110 110 110 110 72 159 159
 197 197 197 197 388 388 388 388 214 214 214 214 223 223 223 287 287 287 287 287
 79 269 269 269 110 110 148 148 148 148 197 197 197 56 56 56 56 56 214 214
 214 214 157 157 157 29 287 287 287 79 79 269 269 269 269 269 148 148 148 148
 148 70 70 56 56 56 56 56 214 214 214 214 157 157 157 29 29 287 79 79
 79 269 269 269 269 269 148 148 148 148 148 70 70 56 56 56 56 56 56 214
 214 245 245 245 245 245 29 29 79 79 79 269 269 269 269 269 148 148 148 148
 148 70 70 56 56 56 56 56 56 14 273 245 245 245 245 245 245 31 31 79
 79 283 269 269 269 269 148 148 148 148 148 148 270 56 56 56 56 56 14 14
 273 273 245 245 245 245 245 31 387 387 387 283 305 305 305 269 148 148 148 148
 148 148 270 244 244 244 244 244 273 273 273 273 273 245 245 151 151 151 387 387
 387 387 305 305 305 305 206 206 206 206 206 124 124 277 277 277 244 244 273 273
 273 273 273 151 151 151 151 151 387 387 387 117 305 51 305 305 247 206 206 206
 206 124 124 277 277 277 277 407 407 273 273 273 273 151 151 151 151 151 117 117
 117 117 51 51 51 247 247 247 247 206 96 96 96 318 277 277 407 407 122 122
 122 122 122 151 151 151 151 151 144 144 144 144 23 23 23 23 247 247 247 96
 96 96 96 318 318 58 122 122 122 122 122 122 122 48 151 151 151 144 144 144
 144 144 23 23 23 23 247 247 39 96 96 96 96 318 318 122 122 122 122 122
 122 122 48 48 48 48 48 346 346 346 346 346 7 7 7 23 247 247 247 96
 96 96 96 318 318 122 122 122 122 122 122 122 48 48 406 406 48 346 346 346
 346 346 7 7 7 81 247 247 232 232 232 96 109 109 109 109 122 122 122 122
 112 112 112 48 48 48 48 346 346 346 346 346 137 137 137 81 141 232 232 232
 232 109 109 109 109 109 122 122 122 122 112 112 112 112 48 48 48 346 346 346
 346 346 27 137 81 141 141 141 232 232 232 109 109 109 109 109 122 122 122 188
 112 112 112 112 374 374 374 374 346 346 346 27 27 137 141 141 141 141 369 369
 369 109 109 109 109 109 333 333 333 112 112 112 112 112 374 374 374 374 230 400
 276 276 276 66 141 141 141 141 369 369 369 109 109 109 109 333 333 333 333 333
 333 112 112 164 164 164 374 230 230 400 276 276 276 66 141 141 141 141 337 369
 369 109 147 109 333 333 333 333 333 333 333 333 164 164 164 164 230 230 230 400
 276 276 276 276 61 61 61 337 337 337 337 147 147 147 333 333 333 333 333 333
 333 333 164 164 164 164 230 230 230 400 400 276 276 66 61 61 337 337 337 337
 337 118 147 147 333 333 333 333 333 333 333 99 380 164 164 164 230 230 400 400
 400 400 412 412 412 413 413 337 337 337 337 118 118 118 333 333 333 333 333 333
 99 99 99 380 380 89 89 230 400 400 400 412 412 412 412 413 413 413 413 413
 413 118 118 118 333 333 333 333 333 333 99 99 99 380 380 89 89 89 400 400
 400 412 412 412 412 413 413 413 413 413 413 118 118 118 118 333 333 128 348 348
 99 99 380 380 89 89 89 89 288 288 288 412 412 412 412 413 413 413 413 413
 413 413 375 375 128 128 128 128 128 348 380 99 380 380 89 89 89 140 288 288
 288 412 412 412 412 413 413 413 413 413 375 375 375 375 121 348 128 128 128 348
 87 87 87 87 140 140 328 328 328 288 288 250 250 250 250 413 413 413 413 375