# vtk DataFile Version 2.0
Data set from IO Version 6.4.197.9a0dee2
ASCII

DATASET RECTILINEAR_GRID
DIMENSIONS 31 31 31
X_COORDINATES 31 float
-2.866667 2.866667 8.599999 14.333332 20.066666 25.799999 31.533331 37.266666 43.000000 48.733334 54.466667 60.200001 65.933327 71.666664 77.399994 83.133331 88.866661 94.599991 100.333328 106.066658 111.799995 
117.533325 123.266663 129.000000 134.733322 140.466660 146.199997 151.933319 157.666656 163.399994 169.133331 
Y_COORDINATES 31 float
-2.866667 2.866667 8.599999 14.333332 20.066666 25.799999 31.533331 37.266666 43.000000 48.733334 54.466667 60.200001 65.933327 71.666664 77.399994 83.133331 88.866661 94.599991 100.333328 106.066658 111.799995 
117.533325 123.266663 129.000000 134.733322 140.466660 146.199997 151.933319 157.666656 163.399994 169.133331 
Z_COORDINATES 31 float
-2.866667 2.866667 8.599999 14.333332 20.066666 25.799999 31.533331 37.266666 43.000000 48.733334 54.466667 60.200001 65.933327 71.666664 77.399994 83.133331 88.866661 94.599991 100.333328 106.066658 111.799995 
117.533325 123.266663 129.000000 134.733322 140.466660 146.199997 151.933319 157.666656 163.399994 169.133331 
CELL_DATA 27000
SCALARS FeatureIds int 1
LOOKUP_TABLE default
 400 400 400 169 169 169 169 169 276 151 104 104 104 104 378 378 378 183 183 183
 183 183 183 229 229 229 229 229 99 99 99 400 400 169 169 169 169 276 276 151
 151 104 104 104 104 378 378 183 183 183 183 183 183 183 229 229 229 229 99 99
 99 99 171 171 66 66 276 276 276 151 151 151 104 104 104 94 94 183 183 183
 183 206 206 206 229 229 229 229 99 99 171 171 171 171 66 276 276 276 276 151
 151 151 3 3 3 94 94 382 183 183 206 206 206 206 126 126 154 154 154 99
 171 171 171 171 171 276 276 276 276 151 151 3 3 3 3 94 382 382 382 183
 206 206 206 126 126 126 154 154 154 171 171 171 171 171 171 276 276 276 276 276
 151 3 3 3 3 382 382 382 382 382 183 126 126 126 126 126 154 154 154 171
 171 171 171 171 171 276 276 276 276 276 235 128 128 128 3 3 382 382 382 382
 382 126 126 126 126 126 154 154 154 171 171 171 171 171 350 350 350 350 350 235
 235 235 128 128 128 351 382 382 382 382 382 209 209 209 209 209 154 154 154 171
 255 255 255 255 350 350 350 350 350 235 235 235 235 235 351 351 351 351 382 382
 209 209 209 209 209 209 209 154 154 255 255 255 185 185 302 302 350 350 350 235
 235 235 235 235 351 351 351 351 351 26 209 209 209 209 209 209 209 209 255 255
 185 185 185 185 302 302 302 350 112 112 235 235 235 235 351 351 351 351 26 26
 26 209 209 209 209 209 209 209 209 255 185 185 185 302 302 302 302 302 112 112
 112 235 235 235 351 351 12 12 26 26 26 301 301 209 209 209 214 214 214 30
 30 30 30 302 302 302 302 302 112 112 112 235 235 235 12 12 12 12 12 337
 337 301 301 209 214 214 214 214 214 30 30 30 30 30 302 302 302 302 112 112
 112 235 157 89 12 12 12 12 12 337 337 337 301 214 214 214 214 214 214 30
 30 30 30 30 302 302 302 302 112 157 157 157 157 157 12 12 12 12 12 337
 337 337 301 214 214 214 214 214 214 30 30 30 30 19 19 19 19 31 31 157
 157 157 157 157 12 12 12 12 12 337 309 309 309 29 29 29 29 29 175 175
 175 19 19 19 19 19 19 31 31 31 157 157 157 157 157 12 12 176 176 176
 309 309 309 29 29 29 29 29 175 175 175 19 19 19 19 19 236 236 31 31
 31 157 157 79 79 306 176 176 176 176 309 309 309 309 29 29 29 29 175 175
 175 19 19 19 19 236 236 236 236 31 31 31 79 79 79 79 176 176 176 176
 309 309 309 309 29 251 251 251 175 175 175 19 19 19 19 236 236 236 236 236
 31 79 79 79 79 370 370 370 176 176 309 309 309 309 251 251 251 251 251 251
 251 251 146 19 19 236 236 236 236 236 236 79 79 18 79 370 370 370 370 370
 334 309 309 251 251 251 251 251 251 251 251 146 146 146 146 146 114 114 236 236
 236 18 18 18 18 370 370 370 370 370 334 334 334 334 251 251 251 251 251 251
 251 146 146 146 146 146 114 114 114 114 18 18 18 18 18 370 370 370 370 334
 334 334 334 313 251 251 251 251 251 251 174 146 146 146 146 330 330 114 114 107
 107 107 18 18 18 14 14 14 14 334 334 334 334 313 313 251 251 251 251 251
 174 146 146 146 146 330 330 330 107 107 107 107 107 18 14 14 14 14 14 14
 334 334 334 313 313 251 251 251 174 174 174 146 146 330 330 330 330 330 107 107
 107 136 136 136 136 14 14 14 14 14 14 334 334 313 323 323 323 174 174 174
 400 400 400 330 330 330 330 330 107 107 136 136 136 136 136 14 14 14 14 14
 14 334 334 323 323 323 323 323 174 174 400 400 400 330 330 330 330 330 107 136
 136 136 136 136 136 378 14 14 14 14 14 14 323 323 323 323 323 323 400 400
 400 400 400 400 169 169 388 388 107 136 136 136 136 136 378 378 378 102 14 183
 183 183 323 323 323 323 323 323 400 400 400 400 400 169 169 169 388 388 388 136
 136 136 136 378 378 378 378 102 183 183 183 183 183 323 323 323 323 400 400 400
 37 37 37 169 169 169 388 388 388 195 195 104 104 104 378 378 102 102 183 183
 183 183 183 183 229 229 229 229 99 99 99 37 37 169 169 169 388 388 276 151
 151 104 104 104 104 378 102 183 183 183 183 183 183 183 229 229 229 229 99 99
 99 304 304 304 66 66 66 276 276 151 151 151 104 104 104 94 94 183 183 183
 183 183 183 183 229 229 229 229 99 99 171 171 171 66 66 66 276 276 276 151
 151 151 3 3 3 382 382 382 183 183 183 183 183 126 126 126 154 154 154 99
 171 171 171 171 66 66 276 276 276 276 151 3 3 3 3 382 382 382 382 183
 183 183 126 126 126 126 154 154 154 171 171 171 171 171 276 276 276 276 276 276
 276 128 128 128 3 382 382 382 382 382 183 126 126 126 126 126 154 154 154 171
 171 171 171 171 276 276 276 276 276 276 235 128 128 128 128 382 382 382 382 382
 382 126 126 126 126 126 154 154 154 171 171 255 171 171 350 350 350 350 350 235
 235 235 128 128 128 351 382 382 382 382 382 126 126 126 126 126 154 154 305 305
 255 255 255 255 350 350 350 350 350 350 235 235 235 128 351 351 351 351 382 382
 209 209 209 209 209 209 209 305 305 255 255 255 255 255 302 302 350 350 350 235
 235 235 235 351 351 351 351 351 351 26 209 209 209 209 209 209 209 209 255 255
 255 255 255 302 302 302 302 302 350 235 235 235 235 351 351 351 351 351 26 26
 301 301 301 209 209 209 209 214 58 255 30 30 30 302 302 302 302 302 112 112
 235 235 235 235 351 351 12 12 12 12 301 301 301 301 209 214 214 214 214 30
 30 30 30 302 302 302 302 302 112 112 112 235 235 89 351 12 12 12 12 12
 301 301 301 301 214 214 214 214 214 30 30 30 30 30 302 302 302 302 112 112
 157 157 89 89 89 12 12 12 12 12 337 301 301 214 214 214 214 214 214 30
 30 30 30 30 302 302 302 302 100 157 157 157 157 89 12 12 12 12 12 12
 337 301 301 214 214 214 214 214 214 30 30 30 30 19 19 19 19 100 100 157
 157 157 157 157 12 12 12 12 12 12 309 309 214 214 214 214 214 214 214 175
 175 19 19 19 19 19 19 100 100 31 157 157 157 157 306 306 12 12 176 176
 309 309 309 29 29 29 29 29 175 175 175 19 19 19 19 19 19 100 100 100
 31 79 79 79 79 306 306 176 176 176 309 309 309 309 29 29 29 251 175 175
 175 19 19 19 19 19 236 236 236 31 31 79 79 79 79 79 79 176 176 176
 309 309 309 309 29 251 251 251 251 175 251 19 19 19 19 19 236 236 236 236
 79 79 79 79 79 79 370 370 370 176 309 309 309 309 251 251 251 251 251 251
 251 251 19 19 19 19 236 236 236 236 79 79 79 79 79 370 370 370 370 370
 41 41 41 251 251 251 251 251 251 251 251 251 146 146 146 114 114 114 114 114
 18 18 18 18 18 370 370 370 370 370 41 41 41 41 251 251 251 251 251 251
 251 146 146 146 146 114 114 114 114 114 18 18 18 18 18 370 370 370 370 370
 334 334 334 313 251 251 251 251 251 251 174 174 146 146 146 330 114 114 114 107
 107 18 18 18 18 370 370 14 14 14 334 334 334 313 251 251 251 251 251 174
 174 174 146 146 146 330 330 330 107 107 107 107 381 381 381 14 14 14 14 14
 14 334 334 313 323 251 251 174 174 174 174 174 146 330 330 330 330 330 107 107
 107 136 381 381 381 14 14 14 14 14 14 14 334 323 323 323 323 174 174 174
 174 174 400 330 330 330 330 330 107 107 107 136 136 136 381 14 14 14 14 14
 14 14 323 323 323 323 323 323 174 174 400 400 400 169 169 330 330 330 107 136
 136 136 136 136 378 14 14 14 14 14 14 14 323 323 323 323 323 323 174 174
 400 37 37 169 169 388 388 388 416 416 136 136 136 378 378 378 102 102 102 183
 183 183 323 323 323 323 323 323 400 400 37 37 37 169 169 388 388 388 416 416
 136 136 136 378 378 378 102 102 102 183 183 183 183 323 323 323 323 323 400 400
 37 37 304 304 169 169 388 388 195 195 195 195 104 104 378 102 102 102 102 183
 183 183 183 183 323 323 323 323 99 99 304 304 304 304 169 66 66 66 195 195
 195 195 104 104 102 102 102 102 183 183 183 183 183 183 323 229 323 356 99 99
 304 304 304 304 66 66 66 66 195 195 195 52 52 104 104 382 102 183 183 183
 183 183 183 183 183 229 229 356 47 99 304 304 304 304 66 66 66 66 276 151
 52 52 52 3 3 382 382 382 183 183 183 183 183 126 126 126 47 47 47 47
 171 177 177 177 66 66 66 276 276 276 52 52 52 3 382 382 382 382 382 183
 183 183 126 126 126 126 126 154 47 47 171 177 177 177 177 66 276 276 276 276
 52 128 128 128 382 382 382 382 382 382 183 183 126 126 126 126 154 154 154 47
 171 177 177 177 177 177 276 276 276 276 128 128 128 128 128 382 382 382 382 382
 382 126 126 126 126 126 126 305 305 305 255 255 177 177 177 117 117 117 117 117
 235 128 128 128 128 351 382 382 382 382 382 126 126 126 126 126 305 305 305 305
 255 255 255 255 117 117 117 117 117 117 235 235 235 128 351 351 351 351 382 382
 382 209 209 209 209 209 305 305 305 305 255 255 255 255 302 302 117 117 117 117
 235 235 235 351 351 351 351 351 351 382 209 209 209 209 209 209 58 305 305 305
 255 255 255 302 302 302 302 302 117 69 69 69 69 351 351 351 351 351 12 12
 301 301 301 209 209 209 58 58 58 58 30 30 30 302 302 302 302 302 112 69
 69 69 69 89 351 351 12 12 12 12 301 301 301 301 214 214 58 58 58 58
 30 30 30 302 302 302 302 302 302 69 69 69 89 89 89 12 12 12 12 12
 301 301 301 214 214 214 214 58 58 30 30 30 30 30 302 302 302 302 302 69
 69 69 89 89 89 12 12 12 12 12 337 301 301 214 214 214 214 214 58 30
 30 30 30 30 302 302 302 100 100 157 157 157 89 89 89 12 12 12 12 12
 12 301 214 214 214 214 214 214 250 250 250 30 19 19 19 19 100 100 100 100
 157 157 157 89 89 12 12 12 12 12 233 309 214 214 214 214 214 214 250 250
 250 19 19 19 19 19 100 100 100 100 157 157 157 34 306 306 306 12 12 233
 309 309 309 214 29 29 29 29 250 250 19 19 19 19 19 19 100 100 100 100
 157 79 79 34 306 306 306 306 176 176 309 309 309 309 29 29 251 251 251 175
 19 19 19 19 19 19 100 100 100 100 100 79 79 79 79 306 306 306 176 176
 309 309 309 309 251 251 251 251 251 251 19 19 19 19 19 19 100 100 100 262
 262 79 79 79 79 79 370 370 370 176 41 41 41 105 251 251 251 251 251 251
 251 19 19 19 19 19 236 236 262 262 262 79 79 79 79 79 370 370 370 370
 41 41 41 41 251 251 251 251 251 251 251 251 19 19 19 19 114 114 114 262
 18 18 18 18 18 18 370 370 370 370 41 41 41 41 251 251 251 251 251 251
 251 251 146 146 146 114 114 114 277 277 18 18 18 18 18 18 370 370 370 370
 41 41 41 41 317 251 251 251 251 251 174 174 174 146 146 330 277 277 277 277
 107 18 18 18 18 18 370 14 14 14 41 41 41 317 317 317 317 251 174 174
 174 174 174 146 146 330 277 277 107 107 107 107 381 381 381 381 14 14 14 14
 14 334 334 317 317 317 317 174 174 174 174 174 174 174 330 330 330 330 107 107
 107 107 381 381 381 14 14 14 14 14 14 14 323 323 323 323 323 174 174 174
 174 174 174 174 330 330 330 107 107 107 107 136 381 381 381 381 14 14 14 14
 14 14 323 323 323 323 323 323 174 174 174 174 400 169 169 169 241 416 416 416
 416 136 136 381 381 102 102 102 14 14 14 323 323 323 323 323 323 323 174 174
 37 37 37 169 169 169 388 416 416 416 416 136 136 378 378 102 102 102 102 102
 183 183 323 323 323 323 323 323 323 174 37 37 37 169 169 169 388 416 416 416
 416 416 136 378 378 102 102 102 102 183 183 183 323 323 323 323 323 323 323 400
 304 304 304 304 163 163 163 195 195 195 195 195 195 102 102 102 102 102 102 183
 183 183 183 183 323 323 323 356 356 356 304 304 304 304 304 66 66 66 195 195
 195 195 195 102 102 102 102 102 102 183 183 183 183 275 323 356 356 356 356 356
 304 304 304 304 66 66 66 258 195 195 195 195 52 52 155 155 155 155 183 183
 183 183 183 275 275 275 356 356 47 47 304 304 304 304 66 66 66 258 258 52
 52 52 52 52 155 155 155 155 183 183 183 183 183 275 275 275 47 47 47 47
 177 177 177 177 66 66 66 258 258 52 52 52 52 52 382 382 382 382 382 183
 183 183 183 126 126 126 47 47 47 47 177 177 177 177 177 177 66 258 258 52
 52 52 52 52 382 382 382 382 382 382 183 183 126 126 126 126 47 47 47 47
 177 177 177 177 177 177 117 117 117 45 52 52 52 128 406 382 382 382 382 382
 183 126 126 126 126 126 305 305 305 305 305 177 177 177 177 117 117 117 117 45
 45 52 128 406 406 406 406 382 382 382 382 115 126 126 126 305 305 305 305 305
 305 255 177 177 177 117 117 117 117 117 117 235 406 406 406 406 406 406 406 382
 115 115 115 115 209 305 305 305 305 305 255 255 255 255 302 117 117 117 117 117
 69 69 69 406 406 406 406 406 406 281 281 115 115 115 209 225 225 225 305 305
 255 255 255 302 302 302 117 117 117 69 69 69 69 406 406 406 406 406 406 281
 281 281 281 115 225 225 225 58 225 225 30 30 30 302 302 302 302 117 117 69
 69 69 69 89 406 406 406 406 12 281 281 281 281 281 214 225 58 58 58 225
 30 30 30 302 302 302 302 302 302 69 69 69 89 89 89 12 12 12 12 12
 281 281 281 214 214 214 225 58 58 225 30 30 30 30 302 302 302 302 131 131
 131 131 89 89 89 89 12 12 12 12 233 281 281 214 214 214 214 225 225 225
 250 30 30 30 19 409 100 100 100 131 131 131 89 89 89 89 12 12 12 233
 233 233 214 214 214 214 214 225 250 250 250 30 19 19 19 409 100 100 100 100
 157 157 89 89 89 218 12 12 233 233 233 233 214 214 214 214 214 225 250 250
 250 19 19 19 19 19 100 100 100 100 157 157 34 34 306 306 306 306 233 233
 233 233 233 214 214 214 214 250 250 250 250 19 19 19 19 19 100 100 100 100
 100 79 34 34 306 306 306 306 233 233 233 233 105 105 78 78 251 250 250 250
 19 19 19 19 19 19 100 100 100 262 262 79 79 79 79 306 306 166 166 166
 41 41 105 105 78 78 251 251 251 251 19 19 19 19 19 19 100 100 262 262
 262 79 79 79 79 79 166 166 166 166 41 41 105 105 78 78 251 251 251 251
 251 19 19 19 19 19 100 262 262 262 262 79 79 79 79 79 166 166 166 41
 41 41 41 105 78 78 251 251 251 251 251 251 19 19 19 19 114 114 262 262
 18 18 18 18 18 18 370 370 370 41 41 41 41 41 251 251 251 251 251 251
 174 174 174 146 146 277 277 277 277 262 18 18 18 18 18 18 370 370 370 41
 41 41 41 41 317 317 317 251 251 251 174 174 174 174 146 277 277 277 277 277
 18 18 18 18 18 18 370 54 54 54 41 41 41 317 317 317 317 251 174 174
 174 174 174 174 146 277 277 277 277 416 107 381 381 381 381 381 54 54 54 54
 54 41 181 317 317 317 317 174 174 174 174 174 174 174 241 241 241 241 416 416
 416 416 381 381 381 381 14 14 54 54 54 54 181 181 323 323 323 174 174 174
 174 174 174 174 241 241 241 241 416 416 416 416 381 381 381 381 54 54 54 54
 54 181 181 181 323 323 323 323 174 174 174 174 174 174 163 241 241 416 416 416
 416 416 381 381 381 102 102 102 102 102 228 181 181 323 323 323 323 323 174 174
 37 37 37 163 163 163 163 416 416 416 416 416 416 381 102 102 102 102 102 102
 228 228 323 323 323 323 323 323 323 174 37 37 37 163 163 163 163 416 416 416
 416 416 416 102 102 102 102 102 102 102 228 183 323 323 323 323 323 323 323 174
 304 304 304 304 163 163 163 374 374 195 195 195 195 279 279 279 102 102 102 228
 228 228 183 323 323 323 356 356 356 356 304 304 304 304 304 163 163 374 374 195
 195 195 195 155 155 155 155 155 102 228 183 183 183 275 275 356 356 356 356 356
 304 304 304 304 304 66 66 258 195 195 195 195 195 155 155 155 155 155 155 183
 183 183 275 275 275 275 356 356 356 356 304 304 304 304 66 66 258 258 258 195
 52 52 52 52 155 155 155 155 155 183 183 183 275 275 275 275 47 47 47 47
 177 177 177 177 177 66 258 258 258 52 52 52 52 52 155 155 155 155 407 407
 407 183 275 275 275 47 47 47 47 47 177 177 177 177 177 177 258 258 258 52
 52 52 52 52 52 382 382 382 407 407 407 183 362 362 362 47 47 47 47 47
 177 177 177 177 177 177 117 117 45 45 45 52 52 52 406 406 406 382 407 407
 407 407 362 362 362 47 47 47 305 305 305 177 177 177 177 117 117 117 45 45
 45 45 406 406 406 406 406 406 406 407 407 115 115 115 362 47 305 305 305 305
 305 177 177 177 177 117 117 117 117 45 45 45 406 406 406 406 406 406 406 406
 115 115 115 115 115 225 305 305 305 305 305 255 177 177 117 117 117 117 117 117
 69 69 406 406 406 406 406 406 406 281 281 115 115 115 225 225 225 225 225 305
 225 225 255 302 117 117 117 117 117 69 69 69 69 406 406 406 406 406 406 281
 281 281 281 115 225 225 225 225 225 225 225 225 30 302 302 117 117 117 117 69
 69 69 69 23 406 406 406 406 406 281 281 281 281 281 225 225 225 225 225 225
 225 30 30 302 302 302 302 117 117 131 131 131 131 89 89 406 406 406 12 281
 281 281 281 281 225 225 225 225 225 225 30 30 30 30 409 409 409 409 131 131
 131 131 131 89 89 89 12 233 233 233 233 281 281 281 225 225 225 225 225 225
 250 30 30 409 409 409 409 409 131 131 131 131 131 89 218 218 218 233 233 233
 233 233 281 214 214 225 225 225 225 225 250 250 19 19 409 409 409 100 100 100
 131 131 178 178 218 218 218 233 233 233 233 233 233 43 214 214 214 225 250 250
 250 19 19 19 19 409 100 100 100 100 100 79 34 34 306 218 218 233 233 233
 233 233 233 43 43 78 78 250 250 250 19 19 19 19 19 19 100 100 100 100
 100 79 79 34 306 306 306 166 233 233 233 233 105 105 78 78 78 78 250 250
 70 70 19 19 19 19 100 100 262 262 262 79 79 79 79 306 166 166 166 166
 233 105 105 105 78 78 78 78 251 251 70 70 19 19 19 19 100 262 262 262
 262 79 79 79 79 79 166 166 166 166 166 105 105 105 78 78 78 78 251 251
 70 70 70 19 19 19 36 262 262 262 262 79 79 79 79 79 166 166 166 166
 41 41 105 105 78 78 78 251 251 251 70 70 70 19 19 36 36 36 262 262
 262 18 18 18 18 18 166 166 166 41 41 41 105 105 78 78 251 251 251 251
 226 226 70 19 36 36 36 36 277 262 262 18 18 18 18 18 370 54 54 54
 41 41 41 105 317 317 317 251 226 226 226 174 174 174 36 36 277 277 277 277
 63 18 18 18 18 18 54 54 54 54 54 41 41 317 317 317 317 174 226 226
 174 174 174 174 277 277 277 277 277 416 416 381 381 381 381 381 54 54 54 54
 54 41 181 320 320 320 320 174 174 174 174 174 174 174 241 241 241 241 416 416
 416 416 381 381 381 381 54 54 54 54 54 181 181 181 320 320 320 174 174 174
 174 174 174 174 298 241 241 241 416 416 416 416 381 381 381 381 54 54 54 54
 54 181 181 181 323 323 323 323 174 174 174 174 174 298 298 298 241 416 416 416
 416 416 381 381 279 279 102 102 54 228 228 181 181 181 323 323 323 323 174 174
 174 174 163 163 163 163 163 416 416 416 416 416 416 279 279 279 102 102 102 228
 228 228 323 323 323 323 323 323 323 174 304 304 304 163 163 163 163 416 416 416
 416 416 416 279 279 279 102 102 102 228 228 228 323 323 323 323 323 323 323 174
 304 304 304 304 163 163 163 374 195 195 195 195 195 279 279 279 279 102 228 228
 228 228 228 275 323 356 356 356 356 356 304 304 304 304 304 163 163 374 195 195
 195 195 195 279 279 155 155 155 228 228 228 228 275 275 275 356 356 356 356 356
 304 304 304 304 304 258 258 258 195 195 195 195 195 155 155 155 155 155 155 183
 183 275 275 275 275 275 356 356 356 356 304 304 304 177 177 258 258 258 258 195
 195 195 52 155 155 155 155 155 155 407 407 275 275 275 275 275 47 47 47 47
 177 177 177 177 177 177 258 258 258 258 52 52 52 52 155 155 155 155 407 407
 407 275 275 275 275 47 47 47 47 47 177 177 177 177 177 177 258 258 258 132
 52 52 52 52 406 186 186 407 407 407 407 362 362 362 362 47 47 47 47 47
 177 177 177 177 177 177 117 300 45 45 45 52 52 406 406 186 186 407 407 407
 407 362 362 362 362 47 47 47 47 47 305 177 177 177 177 177 117 300 45 45
 45 45 406 406 406 406 406 406 407 407 407 115 115 115 362 47 305 305 305 305
 305 177 177 177 177 117 117 117 117 45 45 45 406 406 406 406 406 406 406 407
 115 115 115 115 115 225 225 305 305 305 305 177 177 177 117 117 117 117 117 117
 69 69 406 406 406 406 406 406 406 281 281 115 115 115 225 225 225 225 225 225
 225 225 177 177 117 117 117 117 117 117 69 69 69 23 406 406 406 406 406 281
 281 281 281 115 225 225 225 225 225 225 225 225 225 22 22 22 22 117 117 69
 69 69 23 23 406 406 406 406 406 281 281 281 281 281 225 225 225 225 225 225
 225 225 30 22 22 22 22 22 22 131 131 131 131 23 406 406 406 406 281 281
 281 281 281 281 225 225 225 225 225 225 225 225 30 409 409 409 409 22 27 131
 131 131 131 131 218 218 218 233 233 233 233 281 281 281 225 225 225 225 225 225
 250 345 345 409 409 409 409 27 27 131 131 131 131 178 218 218 218 233 233 233
 233 233 281 43 225 225 225 225 225 225 250 345 345 345 409 409 409 100 27 27
 27 131 178 178 218 218 218 233 233 233 233 233 43 43 43 43 225 225 225 250
 250 345 345 345 409 409 409 100 100 27 27 131 178 178 218 218 218 233 233 233
 233 233 43 43 43 43 78 225 225 250 70 70 345 19 19 19 100 100 100 262
 262 79 79 10 10 218 166 166 233 233 233 233 43 43 43 78 78 78 78 250
 70 70 70 19 19 19 100 100 262 262 262 79 10 10 10 166 166 166 166 166
 233 105 105 105 78 78 78 78 78 70 70 70 70 19 19 113 113 262 262 262
 262 262 10 10 10 166 166 166 166 166 166 105 105 105 78 78 78 78 78 70
 70 70 70 19 19 113 36 262 262 262 262 222 10 10 10 166 166 166 166 166
 41 105 105 105 78 78 78 78 251 70 70 70 70 19 19 36 36 36 36 262
 222 222 18 18 18 18 166 166 166 166 41 105 105 105 78 78 78 78 251 226
 226 226 226 19 36 36 36 36 36 63 222 222 18 18 18 18 54 54 54 54
 41 41 105 105 317 317 317 226 226 226 226 226 226 226 36 36 36 36 36 63
 63 63 18 18 18 54 54 54 54 54 54 41 105 320 320 320 320 226 226 226
 226 174 174 174 241 241 277 277 63 63 63 63 381 381 316 316 54 54 54 54
 54 17 320 320 320 320 320 174 226 226 174 174 174 174 241 241 241 241 416 416
 416 416 381 381 316 316 54 54 54 54 54 17 181 181 320 320 320 174 174 174
 174 174 174 298 298 298 241 241 416 416 416 416 381 381 316 316 54 54 54 54
 54 181 181 181 320 320 320 323 174 174 174 174 328 298 298 298 298 416 416 416
 416 416 416 381 279 279 102 54 54 228 228 181 181 181 323 323 323 323 174 174
 174 328 328 163 163 163 163 416 416 416 416 416 416 279 279 279 279 102 228 228
 228 228 323 323 323 323 323 142 142 174 328 328 328 163 163 163 163 416 416 416
 416 416 416 279 279 279 279 102 228 228 228 228 228 323 323 323 142 142 142 142
 304 328 328 328 163 163 163 195 195 195 195 195 195 279 279 279 279 228 228 228
 228 228 228 275 142 142 142 142 142 142 304 304 304 304 304 163 258 195 195 195
 195 195 195 279 279 279 155 155 228 228 228 228 275 275 275 356 356 356 356 356
 304 304 304 304 304 258 258 258 195 195 195 195 195 155 155 155 155 155 155 228
 228 275 275 275 275 275 356 356 356 356 177 177 177 177 177 258 258 258 258 195
 195 195 195 155 155 155 155 155 155 407 275 275 275 275 275 275 47 47 47 47
 177 177 177 177 177 177 258 258 258 132 132 132 52 52 155 155 155 155 407 407
 407 275 275 275 275 47 47 47 47 47 177 177 177 177 177 177 258 258 132 132
 132 132 52 52 186 186 186 407 407 407 407 362 362 362 362 47 47 47 47 47
 177 177 177 177 177 177 177 300 132 132 132 132 52 186 186 186 186 186 407 407
 407 407 362 362 362 47 47 47 47 47 305 177 177 177 177 177 117 300 45 45
 45 45 406 406 406 186 186 406 406 407 407 115 115 115 362 47 47 47 305 305
 305 177 177 177 177 117 117 117 117 45 45 45 406 406 406 406 406 406 406 406
 115 115 115 115 115 225 225 225 305 305 225 177 177 177 177 117 117 117 117 117
 69 32 406 406 406 406 406 406 406 281 281 115 115 115 225 225 225 225 225 225
 225 225 177 177 117 117 117 117 117 117 69 32 406 406 406 406 406 406 406 281
 281 281 281 115 225 192 192 225 225 225 225 225 225 22 22 22 22 22 117 117
 32 32 23 23 406 406 406 406 406 281 281 281 281 281 225 192 192 225 225 225
 225 225 225 22 22 22 22 22 22 131 131 131 131 23 406 406 406 406 281 281
 281 281 281 281 225 225 225 225 225 225 225 225 345 409 409 22 22 22 27 131
 131 131 131 131 406 218 406 233 233 233 233 281 281 281 225 225 225 225 225 225
 103 345 345 409 409 409 409 27 27 27 131 131 131 131 218 218 218 233 233 233
 233 233 281 43 225 225 225 225 225 225 103 345 345 345 409 409 409 27 27 27
 27 131 178 178 218 218 218 233 233 233 233 233 43 43 43 43 225 225 225 103
 345 345 345 345 345 409 409 27 27 27 27 27 395 395 395 218 218 233 233 233
 233 233 43 43 43 43 43 225 103 103 345 345 345 345 345 116 116 100 27 27
 27 395 395 395 395 218 166 166 166 233 233 233 43 43 43 43 78 78 78 103
 70 70 345 345 113 113 113 113 262 262 262 79 10 10 10 166 166 166 166 166
 233 105 105 43 78 78 78 78 78 70 70 70 70 113 113 113 113 113 262 262
 222 222 10 10 10 166 166 166 166 166 166 105 105 105 78 78 78 78 78 70
 70 70 70 113 113 113 113 36 262 262 222 222 10 10 10 166 166 166 166 166
 166 105 105 105 78 78 78 78 78 70 70 70 70 113 113 36 36 36 36 222
 222 222 222 10 10 166 166 166 166 166 41 105 105 105 78 78 78 78 226 226
 226 226 70 113 113 36 36 36 36 63 222 222 222 46 46 167 54 54 54 54
 54 41 105 105 194 78 78 226 226 226 226 226 226 226 113 36 36 36 63 63
 63 63 46 46 46 54 54 54 54 54 54 17 17 320 320 320 320 226 226 226
 226 174 174 149 149 149 36 36 63 63 63 63 63 46 316 316 316 54 54 54
 54 17 17 320 320 320 320 320 226 226 174 174 174 149 149 241 241 416 416 63
 63 416 416 381 316 316 316 54 54 54 17 17 17 320 320 320 320 320 174 174
 174 174 328 298 298 298 241 416 416 416 416 416 416 316 316 316 316 54 54 54
 75 17 17 320 320 320 320 320 174 174 174 328 328 328 298 298 298 416 416 416
 416 416 416 316 316 279 102 54 75 75 75 75 181 181 323 323 142 142 142 174
 297 328 328 328 163 163 163 416 416 416 416 416 416 279 279 279 279 228 228 228
 228 228 228 323 323 142 142 142 142 297 328 328 328 328 163 163 163 163 416 416
 416 416 416 279 279 279 279 228 228 228 228 228 228 323 323 142 142 142 142 142
 297 328 328 328 163 163 163 51 51 51 51 195 25 25 25 121 121 228 228 228
 228 228 228 275 142 142 142 142 142 142 297 328 328 328 304 163 258 51 51 195
 195 195 231 121 121 121 121 121 228 228 228 228 275 275 275 142 142 142 142 142
 304 304 304 304 304 258 258 258 258 195 195 195 195 121 121 121 155 155 155 228
 156 156 275 275 275 275 356 356 356 356 177 177 177 177 177 258 258 258 258 132
 132 132 93 93 278 278 155 155 213 213 156 156 67 275 275 275 47 47 47 47
 177 177 177 177 177 177 258 258 132 132 132 132 93 93 278 278 278 278 213 213
 213 67 67 67 67 47 47 47 47 47 177 177 177 177 177 177 258 132 132 132
 132 132 93 93 278 278 278 213 213 213 213 67 67 67 67 47 47 47 47 47
 177 177 177 177 177 177 177 132 132 132 132 132 93 186 186 186 186 213 213 213
 213 67 67 67 67 47 47 47 47 47 129 177 177 177 177 177 117 117 132 132
 132 132 406 406 406 186 186 406 282 282 282 67 67 408 408 47 47 47 47 305
 129 129 177 177 177 117 117 117 117 45 45 32 406 406 406 406 406 406 282 282
 282 408 408 408 408 408 225 225 129 129 129 129 182 182 182 117 117 117 117 117
 32 32 32 406 406 406 406 406 282 282 282 282 408 408 408 408 225 225 225 129
 129 129 182 182 182 117 117 117 117 32 32 32 32 406 406 406 406 406 282 282
 282 281 408 408 408 192 192 225 225 225 225 225 182 182 22 22 22 22 117 32
 32 32 32 32 406 406 406 406 282 281 281 281 281 408 408 192 192 225 225 225
 225 147 147 182 22 22 22 22 22 32 32 32 32 32 406 406 406 318 318 281
 281 281 281 281 225 225 225 225 225 225 103 147 147 147 329 329 22 22 27 27
 131 131 131 131 406 218 318 318 233 233 233 418 281 281 225 225 225 225 225 225
 103 103 345 345 409 409 409 27 27 27 27 131 131 131 218 218 218 233 233 233
 233 233 43 43 43 225 225 225 103 103 103 345 345 345 345 409 409 27 27 27
 27 27 395 395 218 218 218 233 233 233 233 233 43 43 43 43 225 225 103 103
 103 345 345 345 345 116 116 27 27 27 27 27 395 395 395 218 287 287 233 233
 233 233 43 43 43 43 43 103 103 103 103 345 345 345 345 116 116 27 27 27
 27 395 395 395 395 395 287 287 287 233 233 139 43 43 43 43 78 248 103 103
 70 345 345 345 113 113 113 113 262 222 222 395 395 395 395 395 287 287 287 287
 139 139 139 43 43 78 78 248 248 248 70 70 70 113 113 113 113 113 138 222
 222 222 10 10 10 166 166 166 166 166 139 139 139 139 78 78 78 78 248 248
 70 70 70 113 113 113 113 113 138 222 222 222 222 10 167 167 167 166 166 166
 139 139 139 139 194 78 78 248 248 230 70 56 56 56 113 113 36 36 138 138
 222 222 222 46 167 167 167 166 166 166 139 139 139 194 194 194 194 248 226 226
 226 56 56 56 113 36 36 36 36 138 222 222 46 46 46 167 167 54 54 54
 348 17 139 194 194 194 194 421 226 226 226 226 56 56 149 149 36 36 63 63
 63 46 46 46 46 46 54 54 54 54 54 17 17 194 194 320 421 421 226 226
 226 174 33 149 149 149 149 36 63 63 63 63 46 46 316 316 316 54 54 54
 17 17 17 17 320 320 320 421 226 226 174 174 149 149 149 149 149 274 63 63
 63 63 46 46 316 316 316 54 54 54 17 17 17 17 320 320 320 320 174 174
 174 328 328 149 149 149 149 274 416 416 416 416 46 46 316 316 316 54 75 75
 75 17 17 17 39 39 39 142 174 174 297 328 328 328 149 149 274 274 416 416
 416 416 416 25 316 316 316 75 75 75 75 75 17 17 39 39 142 142 142 297
 297 328 328 328 163 163 274 274 416 416 416 416 25 25 25 279 279 75 75 75
 75 75 75 323 323 142 142 142 142 297 297 328 328 328 163 163 163 163 416 416
 416 416 25 25 25 279 279 64 228 228 228 228 228 323 142 142 142 142 142 297
 297 328 328 328 328 163 163 51 51 51 51 231 25 25 25 121 121 64 64 228
 228 228 168 168 142 142 142 142 142 297 297 328 328 328 328 163 51 51 51 51
 51 231 231 121 121 121 121 121 64 228 156 156 156 67 67 55 55 142 142 297
 211 237 237 237 237 237 258 51 51 51 51 231 231 121 121 121 121 121 213 156
 156 156 156 67 67 55 55 55 142 211 211 237 237 237 237 237 258 258 51 51
 51 93 93 93 278 278 278 278 213 213 156 156 156 67 67 67 55 219 219 219
 237 237 237 237 237 237 258 132 132 132 132 93 93 93 278 278 278 278 213 213
 213 156 67 67 67 67 219 219 219 219 76 177 177 177 177 177 258 132 132 132
 132 93 93 93 278 278 278 213 213 213 213 67 67 67 67 67 219 219 219 219
 76 177 177 177 177 177 177 132 132 132 132 93 93 93 278 278 278 213 213 213
 213 67 67 67 67 67 219 219 219 76 76 76 177 177 177 177 117 117 132 132
 132 93 93 93 406 402 402 402 282 282 282 67 67 67 67 67 47 129 129 76
 129 129 129 182 182 182 117 117 184 32 32 32 32 406 406 402 402 402 282 282
 282 408 408 408 408 408 408 129 129 129 129 129 182 182 182 182 117 184 184 32
 32 32 32 32 406 406 402 402 282 282 282 282 408 408 408 408 225 129 129 129
 129 129 182 182 182 182 182 117 184 32 32 32 32 32 406 406 406 282 282 282
 282 282 408 408 408 408 225 225 129 129 129 129 182 182 182 182 22 22 32 32
 32 32 32 32 406 406 406 282 282 282 282 282 408 408 408 408 225 225 225 129