# vtk DataFile Version 2.0
Data set from IO Version 6.4.197.9a0dee2
ASCII

DATASET RECTILINEAR_GRID
DIMENSIONS 31 31 31
X_COORDINATES 31 float
-2.866667 2.866667 8.599999 14.333332 20.066666 25.799999 31.533331 37.266666 43.000000 48.733334 54.466667 60.200001 65.933327 71.666664 77.399994 83.133331 88.866661 94.599991 100.333328 106.066658 111.799995 
117.533325 123.266663 129.000000 134.733322 140.466660 146.199997 151.933319 157.666656 163.399994 169.133331 
Y_COORDINATES 31 float
-2.866667 2.866667 8.599999 14.333332 20.066666 25.799999 31.533331 37.266666 43.000000 48.733334 54.466667 60.200001 65.933327 71.666664 77.399994 83.133331 88.866661 94.599991 100.333328 106.066658 111.799995 
117.533325 123.266663 129.000000 134.733322 140.466660 146.199997 151.933319 157.666656 163.399994 169.133331 
Z_COORDINATES 31 float
-2.866667 2.866667 8.599999 14.333332 20.066666 25.799999 31.533331 37.266666 43.000000 48.733334 54.466667 60.200001 65.933327 71.666664 77.399994 83.133331 88.866661 94.599991 100.333328 106.066658 111.799995 
117.533325 123.266663 129.000000 134.733322 140.466660 146.199997 151.933319 157.666656 163.399994 169.133331 
CELL_DATA 27000
SCALARS FeatureIds int 1
LOOKUP_TABLE default
 266 266 266 404 316 397 397 397 397 375 375 375 33 62 62 62 62 62 62 237
 237 184 184 184 184 184 266 266 266 266 266 404 404 404 316 316 316 397 375 375
 375 375 33 33 63 62 62 62 62 237 237 184 184 184 184 266 266 266 266 266
 404 404 404 404 316 316 316 316 375 375 375 265 33 33 63 63 62 62 148 148
 148 184 184 184 184 266 266 266 266 266 404 404 404 404 316 316 316 408 408 408
 265 265 33 33 177 177 177 148 148 148 148 148 262 262 262 266 266 266 266 266
 404 404 404 404 347 347 347 408 408 408 265 265 403 403 177 177 177 177 148 148
 148 262 262 262 262 266 266 266 266 404 404 404 404 347 347 347 347 408 408 408
 19 19 19 403 177 177 177 177 148 148 396 262 262 262 262 132 132 132 176 176
 176 176 404 347 347 347 347 408 408 19 19 19 19 403 177 177 177 91 91 91
 396 262 262 284 284 132 132 132 132 176 176 176 404 347 347 87 347 408 408 19
 19 19 19 403 177 177 91 91 91 91 396 22 284 284 284 284 132 132 132 176
 176 176 176 87 87 87 87 408 274 274 274 19 19 204 204 177 91 91 91 91
 259 284 284 284 284 284 284 132 176 176 249 249 249 249 87 87 87 274 274 274
 274 274 248 248 248 248 366 91 366 259 259 259 284 284 284 284 284 140 176 176
 249 249 249 249 249 352 352 274 274 274 274 274 248 248 248 248 366 366 366 259
 259 259 259 140 140 140 140 140 140 249 249 249 249 249 249 387 387 352 401 401
 401 248 248 248 248 248 248 248 366 259 259 259 259 140 140 140 140 140 140 249
 249 249 249 249 387 387 387 387 401 401 401 248 248 248 248 248 248 248 248 259
 259 259 259 140 140 140 140 140 140 250 250 249 249 387 387 387 387 387 401 401
 401 248 248 248 248 248 248 248 248 259 259 259 259 140 140 140 140 140 250 250
 250 249 387 387 387 387 387 387 401 401 401 248 248 248 248 248 248 248 79 79
 79 144 144 142 142 140 140 140 250 250 250 387 387 387 387 387 387 387 387 401
 365 248 248 248 248 98 98 98 79 79 79 144 144 142 142 142 142 142 371 371
 371 371 387 387 387 387 387 387 387 365 365 365 365 248 98 98 98 98 79 79
 79 79 79 142 142 142 142 371 371 371 371 371 387 387 387 387 387 387 387 365
 365 365 365 365 98 98 98 98 79 79 79 79 395 142 142 142 142 371 371 371
 371 371 227 227 387 387 387 387 365 365 365 365 365 98 98 98 98 98 79 79
 395 395 395 395 395 69 69 69 371 371 407 227 227 227 227 387 387 354 354 354
 354 365 365 98 98 98 98 98 395 395 395 395 395 395 395 69 69 69 407 407
 407 227 227 227 227 227 354 354 354 354 354 354 354 98 98 98 168 168 395 395
 395 395 395 395 395 69 69 69 407 407 407 227 227 227 227 227 354 354 354 354
 354 354 354 354 168 168 168 168 395 395 395 395 395 395 395 69 69 11 407 407
 407 45 45 45 45 45 354 354 354 354 354 354 354 354 168 168 168 168 395 395
 395 395 395 395 395 11 11 11 11 407 45 45 45 45 45 45 354 354 354 354
 354 354 354 354 311 311 125 125 125 125 395 395 395 395 395 11 11 11 11 45
 45 45 45 45 45 45 354 354 354 354 354 354 354 354 311 311 311 125 125 125
 125 125 395 220 220 220 11 11 11 45 45 45 45 45 45 45 354 354 354 354
 354 354 354 311 311 311 311 125 125 125 125 125 125 220 220 220 11 100 100 100
 45 45 45 45 45 94 354 354 354 354 354 354 354 311 311 311 311 125 125 125
 125 125 125 220 220 220 220 100 100 100 45 45 45 45 45 397 397 397 354 354
 354 354 354 311 311 62 62 62 62 125 125 125 184 184 220 220 100 100 100 100
 266 266 45 45 397 397 397 397 397 397 217 217 217 62 62 62 62 62 62 62
 237 184 184 184 184 184 184 100 100 266 266 266 266 45 397 397 397 397 397 397
 217 217 62 62 62 62 62 62 62 237 237 184 184 184 184 184 266 266 266 266
 266 266 266 76 316 397 397 397 397 375 375 375 33 388 63 63 62 62 62 237
 237 337 337 337 337 337 266 266 266 266 266 266 404 316 316 316 316 316 375 375
 375 33 33 33 63 63 63 62 62 237 237 337 337 337 337 266 266 266 266 266
 266 404 404 316 316 316 316 316 375 375 33 33 33 33 63 63 63 63 148 148
 262 262 262 262 262 266 266 266 266 266 266 404 404 316 316 316 316 316 408 408
 265 33 33 33 33 63 63 63 148 396 262 262 262 262 262 266 266 266 266 266
 404 404 404 347 347 347 347 347 408 408 265 33 33 403 403 177 177 396 396 396
 396 262 262 262 262 262 266 266 266 266 176 404 404 347 347 347 347 347 408 408
 19 19 403 403 403 177 177 396 396 396 396 262 262 262 262 262 266 176 176 176
 176 176 404 347 347 347 347 347 408 19 19 19 19 403 403 177 177 91 396 396
 396 262 262 262 262 262 132 176 176 176 176 176 176 347 347 347 347 347 408 19
 19 19 19 204 403 177 91 366 366 396 396 22 22 284 284 284 132 176 176 176
 176 176 176 347 347 347 347 347 274 274 274 19 204 204 204 366 366 366 366 366
 22 22 22 284 284 284 284 176 176 176 176 176 249 249 347 347 352 352 274 274
 274 274 204 204 204 366 366 366 366 22 22 22 22 284 284 140 140 140 176 176
 249 249 249 249 249 352 352 352 274 274 274 274 248 248 248 248 366 366 366 366
 22 22 259 140 140 140 140 140 140 249 249 249 249 249 249 352 352 352 352 401
 401 248 248 248 248 248 248 366 366 366 259 259 259 140 140 140 140 140 140 249
 250 249 249 249 387 387 352 352 401 401 401 248 248 248 248 248 248 248 366 259
 259 259 259 140 140 140 140 140 140 250 250 249 249 387 387 387 387 401 401 401
 401 248 248 248 248 248 248 248 79 79 259 259 259 140 140 140 140 140 250 250
 250 250 387 387 387 387 387 387 401 401 401 248 248 248 248 248 248 248 79 79
 79 79 140 140 140 140 140 140 250 250 250 371 387 387 387 387 387 387 401 401
 401 248 248 248 248 98 98 98 79 79 79 79 79 142 142 140 140 140 371 371
 371 371 387 387 387 387 387 387 387 365 365 365 248 248 98 98 98 98 79 79
 79 79 79 142 142 142 142 371 371 371 371 371 371 387 387 387 387 387 387 365
 365 365 365 98 98 98 98 98 79 79 79 79 79 79 142 142 371 371 371 371
 371 371 227 227 387 387 387 387 387 365 365 365 365 98 98 98 98 79 79 79
 79 79 395 395 69 69 69 69 371 371 407 227 227 227 227 318 387 354 354 354
 354 365 365 98 98 98 98 168 79 79 395 395 395 395 69 69 69 69 407 407
 407 407 227 227 227 318 354 354 354 354 354 354 354 98 98 168 168 168 168 395
 395 395 395 395 69 69 69 69 407 407 407 407 227 227 227 354 354 354 354 354
 354 354 354 305 168 168 168 168 168 395 395 395 395 395 395 69 69 69 407 407
 407 407 45 45 45 354 354 354 354 354 354 354 354 354 168 168 168 168 168 395
 395 395 395 395 395 11 11 11 407 407 407 45 45 45 45 94 354 354 354 354
 354 354 354 354 168 168 168 125 125 125 125 395 395 395 395 11 11 11 407 407
 45 119 119 45 94 94 94 354 354 354 354 354 96 96 311 311 125 125 125 125
 125 125 125 220 220 220 11 11 407 45 119 119 119 119 94 94 94 354 354 354
 354 96 96 96 311 311 125 125 125 125 125 125 125 220 220 220 100 100 100 100
 119 119 119 119 94 94 94 217 217 217 217 96 96 96 311 311 125 125 125 125
 125 125 125 220 220 220 100 100 100 100 119 119 119 119 94 94 397 217 217 217
 217 217 96 388 388 62 62 62 125 125 125 125 125 184 220 220 100 100 100 100
 266 266 10 10 76 397 397 397 397 217 217 217 217 388 388 388 62 62 62 62
 237 184 184 184 184 184 266 266 100 266 266 266 266 76 76 397 397 397 397 217
 217 217 388 388 388 388 62 62 62 237 237 184 184 184 337 337 266 266 266 266
 266 10 10 76 76 76 76 397 397 397 375 388 388 388 388 63 63 62 62 237
 237 337 337 337 337 337 266 266 266 266 266 266 76 76 76 76 76 76 76 76
 33 33 33 63 63 63 63 63 62 237 337 337 337 337 337 337 266 266 266 266
 266 266 404 76 316 316 316 76 76 70 33 33 33 33 63 63 63 63 63 396
 262 262 262 262 337 266 266 266 266 266 266 404 404 316 316 316 316 316 316 70
 33 33 33 33 33 63 63 63 396 396 262 262 262 262 262 262 266 266 266 266
 266 404 404 347 347 347 347 347 408 70 70 33 33 33 403 63 63 396 396 396
 396 262 262 262 262 262 266 266 266 266 176 404 404 347 347 347 347 347 70 70
 70 19 403 403 403 403 396 396 396 396 396 262 262 262 262 262 262 176 176 176
 176 289 289 347 347 347 347 347 408 19 19 19 19 403 403 403 366 396 396 396
 396 262 262 262 262 262 176 176 176 176 176 176 289 347 347 347 347 347 347 274
 19 19 19 204 204 366 366 366 366 396 22 22 22 262 385 385 385 176 176 176
 176 176 289 347 325 325 325 325 274 274 274 186 204 204 204 366 366 366 366 22
 22 22 22 22 385 385 385 385 176 176 176 176 249 325 325 325 325 352 274 274
 274 186 204 204 204 366 366 366 366 22 22 22 22 22 385 385 385 385 176 176
 249 249 249 249 352 352 352 352 352 274 274 186 204 204 204 366 366 366 366 366
 22 22 22 22 140 140 140 140 140 176 249 249 308 308 352 352 352 352 352 352
 401 248 248 248 248 248 366 366 366 366 22 22 22 22 140 140 140 140 140 140
 250 250 308 308 352 352 352 352 352 401 401 248 248 248 248 248 248 366 366 14
 22 22 22 140 140 140 140 140 140 250 250 250 102 308 387 352 352 352 401 401
 401 248 248 248 248 248 248 248 79 79 79 79 123 140 140 140 140 140 250 250
 102 102 102 387 387 387 387 387 401 401 401 248 248 248 248 248 248 79 79 79
 79 79 123 140 140 140 140 140 140 250 102 102 102 387 387 387 387 387 401 401
 401 248 248 248 248 98 98 79 79 79 79 79 79 140 140 140 140 140 371 371
 371 371 102 387 387 387 387 387 409 401 365 248 248 98 98 98 98 79 79 79
 79 79 79 79 72 142 140 371 371 371 371 371 371 387 387 387 387 387 409 409
 365 365 365 98 98 98 98 79 79 79 79 79 79 79 72 72 371 371 371 371
 371 371 371 318 318 318 318 387 409 409 365 365 365 98 98 98 98 79 79 79
 79 79 79 79 72 69 69 69 371 371 407 407 318 318 318 318 318 354 354 354
 354 365 365 98 98 98 168 168 79 79 79 79 79 395 69 69 69 69 407 407
 407 407 318 318 318 318 318 354 354 354 354 354 305 305 305 168 168 168 168 79
 395 395 395 395 69 69 69 69 407 407 407 407 318 318 318 318 354 354 354 354
 354 354 305 305 305 168 168 168 168 168 395 395 395 395 69 69 69 407 407 407
 407 407 318 318 318 318 354 354 354 354 354 354 305 305 305 168 168 168 168 125
 395 395 395 395 395 69 367 367 407 407 407 119 119 119 94 94 94 354 354 354
 354 354 96 96 168 168 168 168 125 125 125 125 395 209 209 367 367 367 367 407
 119 119 119 119 94 94 94 354 354 354 354 96 96 96 96 168 125 125 125 125
 125 125 209 209 209 209 367 367 367 407 119 119 119 119 94 94 94 217 217 217
 217 96 96 96 96 234 234 125 125 125 125 125 209 209 209 209 100 100 100 100
 119 119 119 119 94 94 94 217 217 217 217 96 96 96 388 234 234 125 125 125
 125 125 209 209 209 209 100 100 100 100 119 119 119 119 94 94 94 217 217 217
 217 217 96 388 388 388 234 125 125 125 125 125 337 337 337 337 100 100 100 100
 10 10 10 10 76 76 397 397 217 217 217 217 217 388 388 388 388 62 62 62
 237 337 337 337 337 337 337 57 57 266 10 10 10 76 76 76 397 397 397 217
 217 217 388 388 388 388 388 62 62 237 237 337 337 337 337 337 266 57 57 266
 10 10 10 76 76 76 76 76 76 76 375 388 388 388 388 63 63 187 400 400
 400 337 337 337 337 337 57 57 57 266 266 122 76 76 76 76 76 76 76 76
 33 33 33 63 63 63 63 63 187 400 400 337 337 337 337 337 266 266 266 266
 266 122 122 76 76 76 76 76 76 70 33 33 33 33 63 63 63 63 187 400
 262 262 262 262 337 337 266 266 266 266 122 122 122 76 76 76 76 76 70 70
 70 33 33 33 33 63 63 63 396 396 262 262 262 262 262 262 266 266 266 266
 122 122 122 347 347 347 347 70 70 70 70 70 33 33 124 63 63 396 396 396
 396 262 262 262 262 346 346 266 152 197 197 289 289 347 347 347 347 70 70 70
 70 70 124 124 124 124 396 396 396 396 396 262 262 262 262 346 346 346 197 197
 176 289 289 289 347 347 347 70 70 70 70 70 124 124 124 124 396 396 396 396
 396 396 262 262 346 346 346 176 176 176 176 289 289 289 347 325 325 325 325 70
 70 186 204 204 204 92 366 366 366 396 22 22 22 22 385 385 385 385 176 176
 176 176 289 289 325 325 325 325 325 186 186 186 204 204 204 92 366 366 366 22
 22 22 22 22 385 385 385 385 176 176 176 176 308 325 325 325 325 325 325 186
 186 186 204 204 204 92 366 366 366 22 22 22 22 22 385 385 385 385 176 392
 308 308 308 308 325 325 352 352 352 186 186 186 204 204 204 92 366 366 366 366
 22 22 22 22 385 140 140 140 140 392 308 308 308 308 352 352 352 352 352 352
 186 186 248 248 248 248 366 366 366 14 22 22 22 22 140 140 140 140 140 140
 308 308 308 308 308 352 352 352 352 352 295 248 248 248 248 248 248 366 14 14
 14 22 22 22 140 140 140 140 140 250 102 308 308 308 232 352 352 352 352 401
 295 295 248 248 248 248 248 248 14 14 14 123 123 123 140 140 140 140 140 102
 102 102 102 102 232 232 232 238 238 401 295 295 248 248 248 248 248 79 79 79
 79 123 123 123 140 140 140 140 140 102 102 102 102 102 232 232 232 232 238 409
 295 295 248 248 248 98 98 79 79 79 79 79 123 123 72 140 140 140 102 102
 102 102 102 102 232 232 232 232 409 409 409 409 248 326 98 98 98 79 79 79
 79 79 79 72 72 72 72 279 279 279 279 102 102 102 232 232 232 409 409 409
 409 409 326 326 98 98 98 79 79 79 79 79 79 72 72 72 72 279 279 279
 279 279 318 318 318 318 318 409 409 409 409 409 98 98 98 98 79 79 79 79
 79 79 79 72 72 72 72 279 279 279 407 318 318 318 318 318 318 318 409 409
 409 409 260 260 98 168 168 168 79 79 79 79 79 72 72 69 69 69 407 407
 407 318 318 318 318 318 318 318 354 354 354 305 305 305 305 168 168 168 168 79
 79 79 395 395 276 69 69 69 407 407 361 318 318 318 318 318 318 318 354 354
 354 354 305 305 305 168 168 168 168 168 395 395 395 395 276 276 69 361 361 407
 361 361 318 318 318 318 318 354 354 354 354 354 305 305 305 168 168 168 168 168
 395 395 395 395 276 276 367 367 361 361 361 361 119 384 384 384 94 94 271 271
 354 354 96 305 305 168 168 168 125 125 125 125 209 209 209 367 367 367 367 361
 361 119 119 119 384 94 94 94 271 271 271 96 96 96 96 234 234 234 125 125
 125 125 209 209 209 209 367 367 367 361 119 119 119 119 94 94 94 94 217 217
 217 96 96 96 96 234 234 234 125 125 125 125 209 209 209 209 367 367 361 361
 119 119 119 119 94 94 94 217 217 217 217 217 96 96 388 234 234 234 234 125
 125 125 209 209 209 209 151 100 9 9 9 119 119 119 94 94 94 217 217 217
 217 217 96 388 388 388 234 234 125 125 125 125 337 337 337 337 151 9 9 9
 10 10 10 76 76 76 76 217 217 217 217 217 217 388 388 388 388 400 400 400
 400 337 337 337 337 337 57 57 57 9 10 10 10 76 76 76 76 76 217 217
 217 217 217 388 388 388 388 400 400 400 400 337 337 337 337 337 57 57 57 57
 10 10 76 76 76 76 76 76 76 76 174 174 388 388 63 63 63 187 400 400
 400 400 337 337 337 337 337 57 57 266 122 122 122 76 76 76 76 76 76 76
 174 174 63 63 63 63 63 187 187 400 400 337 337 337 337 337 337 266 266 266
 122 122 122 76 76 76 76 76 76 70 70 33 33 63 63 63 63 187 187 187
 262 262 262 262 337 337 266 266 266 122 122 122 122 122 76 76 76 76 70 70
 70 70 33 124 63 63 63 187 396 396 262 262 262 262 262 346 346 266 152 152
 122 122 122 122 76 76 76 70 70 70 70 70 124 124 124 124 63 396 396 396
 396 262 262 262 262 346 346 152 152 197 197 122 289 289 347 347 347 70 70 70
 70 70 124 124 124 124 124 396 396 396 396 262 262 262 346 346 346 346 197 197
 197 289 289 289 347 347 325 70 70 70 70 70 124 124 124 124 411 411 396 396
 396 396 262 262 346 346 346 346 197 197 197 289 289 289 325 325 325 325 325 70
 70 186 186 204 92 92 411 411 411 396 22 22 22 22 346 385 385 385 197 197
 392 289 289 289 325 325 325 325 325 186 186 186 186 204 92 92 92 366 366 366
 22 22 22 22 385 385 385 385 392 392 392 392 308 325 325 325 325 325 325 186
 186 186 186 204 92 92 92 366 366 366 22 22 22 48 48 385 385 385 392 392
 392 308 308 308 325 325 325 325 325 186 186 186 186 204 92 92 92 366 366 14
 22 22 22 48 48 385 140 140 392 392 308 308 308 308 325 352 352 352 352 186
 186 186 186 204 92 92 92 366 14 14 14 22 22 48 48 140 140 140 140 392
 308 308 308 308 308 352 352 352 238 238 295 295 295 248 248 248 92 14 14 14
 14 14 22 48 48 4 140 140 140 102 308 308 308 308 232 232 238 238 238 295
 295 295 295 295 248 248 391 391 14 14 14 123 123 123 123 4 4 140 102 102
 102 102 102 102 232 232 232 238 238 295 295 295 295 295 248 248 391 391 391 79
 79 123 123 123 123 4 4 4 102 102 102 102 102 102 232 232 232 232 238 409
 295 295 295 326 326 98 194 391 79 79 79 123 123 123 72 72 72 72 102 102
 102 102 102 102 232 232 232 232 409 409 409 409 326 326 326 326 194 79 79 79
 79 79 123 72 72 72 72 279 279 279 279 102 102 102 232 232 232 409 409 409
 409 409 326 326 326 326 79 79 79 79 79 79 79 72 72 72 72 279 279 279
 279 279 318 318 318 318 318 409 409 409 409 409 326 326 326 326 79 79 79 79
 79 79 79 72 72 72 72 279 279 279 279 318 318 318 318 318 318 318 409 409
 409 409 260 260 260 168 214 214 79 79 79 79 79 72 72 72 72 279 279 279
 361 318 318 318 318 318 318 318 409 409 409 260 260 260 260 168 214 214 214 79
 101 101 101 101 276 276 276 361 361 361 361 318 318 318 318 318 318 318 318 354
 369 305 305 305 305 168 214 214 214 214 101 101 101 276 276 276 276 361 361 361
 361 361 318 318 318 318 318 318 271 271 369 369 369 305 305 168 214 214 214 214
 101 101 101 101 276 276 276 361 361 361 361 361 318 318 384 384 384 271 271 271
 369 369 369 369 369 168 168 214 214 214 286 286 101 209 276 276 367 367 361 361
 361 361 119 384 384 384 94 271 271 271 271 369 369 369 369 234 234 234 234 125
 286 286 286 209 209 315 315 367 361 361 361 119 119 119 94 94 94 271 271 271
 271 369 369 369 369 234 234 234 234 125 286 286 209 209 209 315 315 361 361 361
 9 119 119 119 94 94 94 217 217 217 217 300 300 369 234 234 234 234 234 23
 286 286 286 209 151 151 151 9 9 9 9 9 49 49 94 94 94 217 217 217
 217 300 300 300 388 234 234 234 23 23 23 286 215 215 151 151 151 9 9 9
 9 10 10 49 49 76 76 217 217 217 217 300 300 388 388 388 156 156 400 400
 400 400 337 337 337 151 151 57 9 9 10 10 10 76 76 76 76 76 217 217
 217 217 300 388 388 388 156 400 400 400 400 400 337 337 337 337 57 57 57 9
 10 10 76 76 76 76 76 76 76 76 174 174 174 174 373 373 187 187 400 400
 400 400 337 337 337 337 337 162 162 162 122 122 122 76 76 76 76 76 76 76
 174 174 174 174 373 373 187 187 187 400 400 400 337 337 337 337 337 162 162 162
 122 122 122 76 76 76 76 76 76 70 70 174 174 174 373 373 187 187 187 187
 400 262 262 112 112 337 346 266 162 122 122 122 122 122 76 76 76 76 70 70
 70 70 124 124 372 372 372 187 5 5 262 262 262 262 346 346 346 346 152 122
 122 122 122 122 76 76 76 70 70 70 70 70 124 124 124 372 372 5 5 5
 5 262 262 262 346 346 346 346 152 197 197 122 122 122 6 6 70 70 70 70
 70 70 124 124 124 124 5 5 5 5 5 262 262 346 346 346 346 346 197 197
 197 157 289 289 6 6 6 70 70 70 70 70 124 124 124 124 411 411 5 5
 5 262 262 346 346 346 346 346 197 197 157 157 157 6 6 6 325 325 70 70
 70 186 186 186 92 92 411 411 411 5 5 374 374 346 346 346 346 346 197 197
 392 157 157 325 325 325 325 325 325 186 186 186 186 186 92 92 92 411 411 200
 374 374 374 22 385 385 385 385 392 392 392 392 392 325 325 325 325 272 325 186
 186 186 186 186 92 92 92 92 366 200 374 374 374 48 48 333 385 392 392 392
 392 308 308 308 325 325 325 272 325 186 186 186 186 186 92 92 92 92 14 14
 14 374 48 48 48 333 385 392 392 392 308 308 308 308 380 380 352 238 238 186
 186 186 186 186 92 92 92 14 14 14 14 14 48 48 48 4 4 392 392 392
 308 308 308 308 380 238 238 238 238 238 295 295 295 295 248 92 92 14 14 14
 14 14 14 48 4 4 4 4 392 392 102 308 308 308 232 232 238 238 238 295
 295 295 295 295 248 248 194 14 14 14 14 123 123 123 4 4 4 4 102 102
 102 102 102 102 232 232 232 238 238 295 295 295 295 295 295 194 194 391 391 79
 79 123 123 123 4 4 4 4 102 102 102 102 102 102 232 232 232 238 238 409
 295 295 295 326 326 326 194 194 194 79 79 123 123 123 72 4 4 4 279 102
 102 102 102 102 232 232 232 409 409 409 409 409 326 326 326 326 391 391 79 79
 79 79 123 72 72 72 72 279 279 279 279 102 102 102 232 232 232 409 409 409
 409 409 326 326 326 326 79 79 79 79 79 79 413 72 72 72 72 279 279 279
 279 279 318 318 318 318 318 409 409 409 409 409 326 326 326 326 79 79 79 79
 79 79 413 72 72 72 72 72 279 279 279 318 318 318 318 318 318 318 409 409
 409 260 260 260 260 214 214 214 79 79 79 79 413 72 72 72 72 72 279 279
 361 318 318 318 318 318 318 318 409 409 409 260 260 260 260 214 214 214 214 214
 101 101 101 276 276 276 276 361 361 361 361 318 318 318 318 318 318 318 318 180
 369 369 260 260 260 214 214 214 214 214 101 101 101 276 276 276 276 361 361 361
 361 361 318 318 318 318 318 318 271 369 369 369 369 369 369 214 214 214 214 214
 101 101 101 276 276 276 276 361 361 361 361 361 318 318 318 384 318 271 271 271
 369 369 369 369 369 214 214 214 214 214 286 286 286 276 276 276 276 361 361 361
 361 361 119 384 384 384 271 271 271 271 369 369 369 369 369 369 234 234 234 125
 286 286 286 209 315 315 315 361 361 361 361 361 119 49 94 94 94 271 271 271
 271 369 369 369 369 234 234 234 234 125 286 286 286 209 315 315 315 361 361 361
 9 9 49 49 49 94 94 271 275 275 300 300 300 369 369 234 234 234 23 23
 286 286 286 215 151 151 151 9 9 9 9 9 49 49 49 49 94 275 275 275
 300 300 300 300 156 156 156 156 23 23 23 286 215 215 151 151 151 9 9 9
 9 9 49 49 49 49 76 275 275 275 275 300 300 388 388 156 156 156 400 400
 400 400 215 215 151 151 151 9 9 9 9 9 49 49 76 76 76 76 275 275
 275 300 174 174 388 156 156 156 400 400 400 400 337 337 337 337 151 9 9 9
 162 162 49 76 76 76 76 76 76 76 174 174 174 174 174 373 156 156 400 400
 400 400 337 337 337 337 162 162 162 162 162 122 122 76 76 76 76 76 76 76
 174 174 174 174 174 373 187 187 187 400 400 400 112 112 112 112 162 162 162 162
 162 122 122 76 76 76 76 76 76 70 70 174 174 174 372 372 372 187 187 187
 400 112 112 112 112 112 112 162 162 162 122 122 122 122 76 76 76 76 70 70
 70 70 174 124 372 372 372 5 5 5 5 239 239 112 112 346 346 346 197 122
 122 122 122 122 76 76 76 70 70 70 70 70 124 124 372 372 372 5 5 5
 5 239 239 112 346 346 346 346 197 197 197 157 122 6 6 6 70 70 70 70
 70 70 124 124 124 372 5 5 5 5 5 239 239 239 346 346 346 346 197 197
 157 157 157 6 6 6 6 70 70 70 70 70 124 124 124 372 5 5 5 5
 5 239 239 346 346 346 346 346 197 197 157 157 157 6 6 6 6 325 70 70
 70 186 186 242 92 92 411 411 5 5 5 374 374 346 346 346 346 346 157 157
 157 157 157 6 6 6 6 325 325 186 186 186 186 186 92 92 92 411 200 200
 200 374 374 374 333 333 333 385 392 392 392 157 157 325 325 325 325 272 325 186
 186 186 186 186 92 92 92 92 200 200 200 374 374 48 333 333 333 392 392 392
 392 116 116 380 380 325 325 325 325 186 186 186 186 186 92 92 92 92 200 200
 14 374 374 48 333 333 333 333 392 392 308 308 308 380 380 380 238 238 238 186
 186 186 186 186 92 92 92 14 14 14 14 14 374 48 333 333 333 333 392 392
 308 308 308 380 380 380 238 238 238 238 295 295 295 295 92 370 370 14 14 14
 14 14 123 4 4 4 4 4 114 392 102 308 308 308 380 232 238 238 238 295
 295 295 295 295 295 370 370 370 14 14 14 123 123 123 4 4 4 4 4 102
 102 102 102 102 232 232 232 238 238 295 295 295 295 295 295 370 194 194 194 14
 123 123 123 123 4 4 4 4 420 420 102 102 102 102 232 232 232 232 238 409
 295 295 295 295 326 194 194 391 194 79 79 123 123 123 4 4 4 4 420 420
 102 102 102 102 232 232 232 409 409 409 409 409 326 326 326 326 391 391 391 79
 79 330 413 72 72 72 72 399 279 279 279 102 102 102 232 232 232 409 409 409
 409 409 326 326 326 326 391 79 79 79 330 330 413 413 72 72 72 399 279 279
 279 279 318 318 318 318 318 409 409 409 409 409 326 326 326 326 326 79 79 79
 79 413 413 413 72 72 72 399 279 279 279 318 318 318 318 318 318 318 409 409
 409 409 260 260 260 214 214 214 214 79 79 413 413 413 72 72 72 338 338 338
 338 318 318 318 318 318 318 318 180 180 180 260 260 260 260 214 214 214 214 214
 101 101 101 101 276 276 276 338 338 338 338 318 318 318 318 318 318 318 180 180
 180 180 260 260 214 214 214 214 214 214 101 101 101 276 276 276 276 338 338 338
 361 361 318 318 318 318 318 318 180 180 369 369 369 369 369 214 214 214 214 214
 101 101 101 101 276 276 276 361 361 361 361 361 318 318 318 318 318 271 271 271
 369 369 369 369 369 214 214 214 214 214 286 286 286 286 276 276 276 361 361 361
 361 361 318 318 384 384 271 271 271 271 369 369 369 369 369 369 32 32 32 32
 286 286 286 286 315 315 315 361 361 361 361 361 49 49 49 94 94 271 271 271
 271 369 369 369 369 32 32 32 32 32 286 286 286 286 315 315 315 361 361 361
 9 9 49 49 49 49 94 275 275 275 275 300 300 369 369 32 32 32 32 23
 286 286 286 215 151 151 151 9 9 9 9 49 49 49 49 49 49 275 275 275
 275 300 300 300 156 156 156 156 156 23 23 400 215 215 151 151 151 9 9 9
 9 49 49 49 49 49 76 275 275 275 275 300 300 300 156 156 156 156 156 400
 400 400 215 215 151 151 151 9 9 9 9 49 49 49 49 76 76 76 275 275
 275 300 174 174 388 156 156 156 400 400 400 400 337 337 337 337 151 162 162 9
 162 162 49 49 76 76 76 76 76 76 174 174 174 174 174 156 156 156 400 400
 400 322 322 112 112 112 162 162 162 162 162 162 76 76 76 76 76 76 76 76
 174 174 174 174 174 372 372 187 187 400 400 112 112 112 112 112 162 162 162 162
 162 122 122 76 76 76 76 76 76 76 70 174 174 174 372 372 372 187 187 350
 350 112 112 112 112 112 312 312 162 162 122 122 122 362 362 76 76 76 70 70
 70 70 174 372 372 372 372 372 5 350 350 239 239 112 112 112 312 312 312 162
 122 122 122 362 362 76 76 70 70 70 70 70 124 124 372 372 372 5 5 5
 350 239 239 239 112 346 346 312 197 197 157 157 157 6 6 6 70 70 70 70
 70 70 124 124 242 372 372 5 5 5 5 239 239 239 346 346 346 346 197 157
 157 157 157 6 6 6 6 70 70 70 70 242 242 242 242 242 372 5 5 5
 5 239 239 346 346 346 346 346 157 157 157 157 157 6 6 6 6 6 70 70
 70 242 242 242 242 242 416 416 5 200 200 200 254 254 346 346 346 157 157 157
 157 157 157 6 6 6 6 6 325 186 186 186 242 242 242 92 92 200 200 200
 200 200 374 333 333 333 333 333 157 157 157 116 116 116 6 6 6 325 325 41
 186 186 186 242 92 92 92 200 200 200 200 200 374 333 333 333 333 333 392 392
 116 116 116 116 380 380 325 325 325 186 186 186 186 186 92 92 92 200 200 200
 200 200 374 333 333 333 333 333 392 392 116 116 116 116 380 380 380 238 238 186
 186 186 186 186 92 370 370 370 14 14 14 14 245 245 245 333 114 114 114 392
 116 116 116 380 380 380 380 238 238 238 295 295 295 295 370 370 370 370 370 14
 14 14 245 245 4 4 114 114 114 114 102 308 308 380 380 380 238 238 238 295
 295 295 295 295 370 370 370 370 370 14 14 150 123 123 4 4 4 114 114 114
 420 102 102 102 224 224 224 238 238 295 295 295 295 295 295 370 370 370 370 314
 150 123 123 123 4 4 4 114 420 420 420 102 102 102 224 224 224 224 238 409
 295 295 295 295 37 37 37 37 314 314 314 330 123 123 4 4 4 420 420 420
 420 102 102 102 224 224 224 224 409 409 409 409 326 326 37 37 37 37 37 314
 330 330 413 413 72 72 399 399 420 420 279 102 102 102 224 224 224 409 409 409
 409 409 326 326 37 37 37 37 37 79 330 330 413 413 72 72 399 399 399 279
 279 279 318 318 318 318 318 409 409 409 409 409 326 326 37 37 37 37 37 51
 330 330 413 413 72 72 399 399 399 117 338 318 318 318 318 318 318 318 409 409
 409 409 260 37 37 37 37 37 37 51 51 51 51 51 72 72 72 117 117 338
 338 338 318 318 318 318 318 53 180 180 180 180 260 260 37 37 37 214 214 51
 51 51 51 51 276 276 276 338 338 338 338 338 318 318 318 318 318 53 180 90
 180 180 369 193 37 214 214 214 214 214 51 51 51 51 276 276 276 338 338 338
 338 338 318 318 318 318 318 53 180 180 180 369 369 369 193 214 214 214 214 214
 101 51 101 101 276 276 276 338 338 338 361 361 318 318 318 134 134 271 271 271
 369 369 369 369 369 214 214 163 163 163 82 82 82 82 276 276 361 361 361 361
 361 361 318 318 318 134 134 271 271 271 369 369 369 369 369 32 32 32 32 82
 82 82 82 82 315 315 361 361 361 361 361 361 49 49 49 49 275 275 275 275
 275 369 369 369 369 32 32 32 32 82 82 82 82 82 315 315 315 361 361 361
 9 49 49 49 49 49 49 275 275 275 275 280 280 207 207 32 32 32 32 82
 82 82 82 82 151 151 151 9 9 9 9 49 49 49 49 49 49 275 275 275
 275 275 280 280 156 156 156 156 156 400 82 82 82 215 151 151 151 9 9 9
 9 49 49 49 49 49 76 275 275 275 275 275 280 174 156 156 156 156 156 400
 400 400 400 215 151 151 151 306 9 9 27 49 49 49 49 76 76 76 275 275
 275 275 174 174 174 156 156 156 156 400 400 322 322 322 322 337 151 162 162 162
 162 162 49 76 76 76 76 76 76 76 174 174 174 174 24 24 24 156 400 322
 322 322 322 322 112 162 162 162 162 162 162 162 362 362 76 76 76 76 76 348
 348 174 174 174 372 372 372 187 350 350 350 322 112 112 112 112 312 312 162 162
 162 162 362 362 362 362 76 76 348 348 348 348 174 372 372 372 372 187 350 350
 350 350 112 112 112 112 312 312 312 162 162 362 362 362 362 362 76 76 348 348
 348 348 372 372 372 372 372 372 350 350 350 350 112 112 112 112 312 312 312 312
 36 362 362 362 362 84 84 70 348 348 348 70 242 372 372 372 372 5 350 350
 350 350 239 112 112 3 312 312 312 36 157 157 362 362 84 84 84 70 269 269
 269 242 242 242 242 372 372 5 5 350 350 350 239 239 3 3 3 312 36 36
 157 157 157 6 6 6 6 6 269 269 269 242 242 242 242 242 416 416 416 5
 5 350 254 254 3 3 3 3 157 157 157 157 157 6 6 6 6 6 70 41
 242 242 242 242 242 242 416 416 416 200 200 200 254 254 254 3 3 157 157 157
 157 157 157 6 6 6 6 6 41 41 41 242 242 242 242 242 416 416 200 200
 200 200 254 254 333 333 333 333 157 157 157 116 116 116 6 6 6 6 41 41
 41 242 242 242 242 242 92 200 200 200 200 200 254 333 333 333 333 333 157 157
 116 116 116 116 364 364 364 325 41 41 41 186 186 242 92 92 92 200 200 200
 200 200 245 245 333 333 333 333 114 392 116 116 116 116 364 364 364 364 41 41
 41 240 240 240 370 370 370 370 370 200 200 245 245 245 245 114 114 114 114 114
 116 116 116 116 380 364 364 238 238 240 240 240 240 240 370 370 370 370 370 150
 150 150 245 245 245 114 114 114 114 114 133 133 133 224 224 224 224 224 238 240
 240 240 240 240 370 370 370 370 150 150 150 150 245 245 4 114 114 114 114 114