# vtk DataFile Version 2.0
Data set from IO Version 6.4.197.9a0dee2
ASCII

DATASET RECTILINEAR_GRID
DIMENSIONS 31 31 31
X_COORDINATES 31 float
-2.866667 2.866667 8.599999 14.333332 20.066666 25.799999 31.533331 37.266666 43.000000 48.733334 54.466667 60.200001 65.933327 71.666664 77.399994 83.133331 88.866661 94.599991 100.333328 106.066658 111.799995 
117.533325 123.266663 129.000000 134.733322 140.466660 146.199997 151.933319 157.666656 163.399994 169.133331 
Y_COORDINATES 31 float
-2.866667 2.866667 8.599999 14.333332 20.066666 25.799999 31.533331 37.266666 43.000000 48.733334 54.466667 60.200001 65.933327 71.666664 77.399994 83.133331 88.866661 94.599991 100.333328 106.066658 111.799995 
117.533325 123.266663 129.000000 134.733322 140.466660 146.199997 151.933319 157.666656 163.399994 169.133331 
Z_COORDINATES 31 float
-2.866667 2.866667 8.599999 14.333332 20.066666 25.799999 31.533331 37.266666 43.000000 48.733334 54.466667 60.200001 65.933327 71.666664 77.399994 83.133331 88.866661 94.599991 100.333328 106.066658 111.799995 
117.533325 123.266663 129.000000 134.733322 140.466660 146.199997 151.933319 157.666656 163.399994 169.133331 
CELL_DATA 27000
SCALARS FeatureIds int 1
LOOKUP_TABLE default
 266 266 266 266 266 266 21 21 21 51 51 51 51 51 25 25 260 260 260 260
 257 257 257 233 233 233 4 4 4 4 266 266 266 266 266 229 21 21 21 21
 21 21 51 51 226 226 260 260 260 260 257 257 257 257 233 4 4 4 4 4
 266 266 266 266 229 229 235 21 21 21 21 21 21 226 226 226 226 260 260 260
 257 257 257 257 233 4 4 4 4 4 229 229 229 229 229 229 229 21 21 21
 21 21 21 226 226 226 226 226 260 257 257 257 257 158 158 4 4 4 4 4
 140 229 229 229 229 229 229 229 21 21 21 21 21 226 226 369 369 369 263 263
 263 158 158 158 158 158 129 129 4 183 140 229 229 229 229 229 229 229 21 182
 182 182 182 226 369 369 369 369 263 263 263 158 158 158 158 158 129 129 183 183
 140 140 140 229 229 229 229 229 182 182 182 182 182 369 369 369 369 369 263 263
 263 158 158 158 158 158 129 183 183 183 140 140 140 140 229 229 229 229 182 182
 182 182 182 118 118 118 118 369 263 263 263 158 158 158 158 158 129 140 140 140
 140 140 140 140 15 15 15 229 182 182 182 182 182 118 118 118 118 236 236 263
 263 158 158 158 158 373 373 140 140 140 140 140 140 140 15 15 15 15 182 182
 182 182 182 118 118 118 236 236 236 236 172 172 367 367 367 373 373 140 140 140
 140 140 140 140 140 15 15 15 15 182 182 332 332 332 332 104 236 236 236 236
 236 367 367 367 367 367 373 140 140 140 140 140 140 140 140 15 15 15 200 17
 17 332 332 332 332 104 104 104 391 391 391 367 367 367 367 367 373 140 140 140
 140 140 140 140 247 247 247 247 247 17 17 17 17 332 332 104 391 391 391 391
 391 367 367 367 367 367 367 140 140 140 345 345 345 247 247 247 247 247 247 17
 17 17 17 332 391 391 391 391 391 391 391 23 367 367 367 270 270 270 217 345
 345 345 345 247 247 247 247 247 247 20 136 136 136 136 136 391 391 391 391 391
 391 23 367 270 270 270 270 270 345 345 345 345 345 247 247 247 247 247 20 20
 136 136 136 136 136 10 10 391 391 391 391 343 343 270 270 270 270 44 44 44
 44 345 345 247 247 247 247 247 247 136 136 136 136 78 78 10 10 10 391 391
 346 343 343 343 270 270 270 44 44 44 44 44 345 247 247 247 247 174 174 174
 136 136 78 78 78 78 10 10 10 346 346 343 343 343 343 270 270 44 44 44
 44 44 345 247 247 174 174 174 174 358 358 78 78 78 78 78 78 322 322 322
 346 37 37 37 37 37 44 44 44 44 44 44 285 285 302 174 174 174 174 358
 358 78 78 78 78 78 78 322 322 322 37 37 37 37 37 37 39 39 44 44
 44 285 285 285 302 302 174 174 174 358 358 78 78 78 78 78 78 322 322 131
 131 37 37 37 37 37 39 39 39 44 285 285 285 285 302 302 302 174 174 174
 358 78 78 78 78 78 78 322 131 131 131 131 37 37 37 197 197 39 39 197
 285 285 285 285 302 302 302 302 174 49 49 49 49 78 78 78 78 131 131 131
 131 131 30 30 30 197 197 197 197 197 9 9 285 89 89 302 302 302 49 49
 49 49 49 128 128 128 149 131 131 131 131 131 30 30 30 197 197 188 188 188
 9 9 9 89 89 89 89 89 49 49 49 49 128 128 128 128 128 131 131 131
 131 30 30 30 30 30 188 188 188 188 9 9 9 89 89 89 89 89 51 51
 51 51 128 128 128 128 128 131 131 131 30 30 30 30 30 232 188 188 188 188
 224 9 89 89 89 89 89 89 51 51 51 51 51 128 128 128 128 286 286 286
 30 30 30 30 232 232 232 232 224 224 224 224 89 89 89 81 81 81 51 51
 51 51 51 51 128 128 286 286 286 286 233 233 233 233 232 232 232 232 224 224
 224 224 89 89 89 81 81 81 51 51 51 51 51 51 128 128 286 286 286 286
 233 233 233 233 233 232 232 232 224 224 224 266 266 266 266 81 81 81 51 51
 51 51 51 51 25 25 286 286 260 260 257 257 233 233 233 232 232 232 232 224
 266 266 266 266 266 266 266 21 21 51 51 51 51 25 25 25 260 260 260 257
 257 257 257 233 233 233 4 4 4 4 266 266 266 266 266 266 141 21 21 21
 21 21 51 25 25 25 260 260 260 257 257 82 257 257 233 4 4 4 4 4
 266 266 266 266 141 141 141 21 21 21 21 21 21 226 226 226 226 47 260 257
 257 257 257 257 233 4 4 4 4 4 284 284 284 284 229 229 229 229 21 21
 21 21 21 369 369 369 369 369 263 263 257 257 257 158 158 129 4 4 4 4
 183 284 284 284 229 229 229 229 21 21 21 21 21 369 369 369 369 369 263 263
 263 158 158 158 158 129 129 129 183 183 183 183 229 229 229 229 229 229 229 182
 182 182 182 369 369 369 369 369 263 263 263 158 158 158 158 129 129 129 183 183
 183 140 140 229 229 229 229 229 229 182 182 182 182 369 369 369 369 369 263 263
 263 158 158 158 158 158 129 183 183 183 140 140 140 140 229 229 229 229 229 182
 182 182 182 369 369 369 369 369 263 263 263 158 158 158 158 158 129 183 183 183
 140 140 140 140 140 229 229 229 182 182 182 182 182 182 118 118 118 236 236 263
 172 172 158 373 373 373 373 183 140 140 140 140 140 140 140 15 15 15 344 182
 182 182 182 182 118 118 236 236 236 296 172 172 172 373 373 373 373 373 140 140
 140 140 140 140 140 15 15 15 344 344 344 332 332 332 332 104 104 104 104 296
 172 172 367 373 373 373 373 373 140 140 140 140 140 140 140 140 200 200 200 17
 17 17 332 332 332 104 104 104 104 104 172 367 367 367 367 373 373 373 140 140
 140 140 140 140 140 247 200 200 200 17 17 17 17 332 104 104 104 104 391 391
 23 23 23 367 367 270 270 217 217 217 345 345 345 247 247 247 247 200 200 17
 17 17 17 17 104 104 104 391 391 391 23 23 23 23 270 270 270 217 217 217
 345 345 345 345 247 247 247 247 247 20 17 17 17 136 136 391 391 391 391 391
 23 23 23 270 270 270 270 270 217 345 345 345 345 345 247 247 247 247 20 20
 136 136 136 136 78 78 10 391 391 391 23 23 270 270 270 270 270 270 44 345
 44 345 345 345 247 247 247 247 174 136 136 136 136 78 78 78 78 10 391 346
 346 346 343 343 270 270 270 44 44 44 44 44 345 345 247 247 174 174 174 174
 136 136 78 78 78 78 78 78 346 346 346 346 343 343 343 270 270 44 44 44
 44 44 345 285 247 174 174 174 174 174 174 78 78 78 78 78 78 78 322 346
 346 346 343 343 343 270 44 44 44 44 44 44 285 285 302 174 174 174 174 174
 174 78 78 78 78 78 78 78 322 346 346 346 37 37 37 37 197 44 44 44
 44 285 285 285 302 302 174 174 174 174 174 78 78 78 78 78 78 78 131 131
 346 346 37 37 37 197 197 197 197 197 285 285 285 285 302 302 302 174 174 174
 174 78 78 78 78 78 78 149 131 131 131 30 30 30 30 197 197 197 197 197
 285 285 285 285 302 302 302 302 174 174 49 49 78 78 78 78 149 149 131 131
 131 30 30 30 30 197 197 197 197 197 9 9 285 285 302 302 302 302 174 49
 49 49 128 128 128 128 149 149 131 131 131 30 30 30 30 197 197 197 197 197
 9 9 9 89 89 89 89 302 49 49 49 128 128 128 128 128 149 149 131 131
 131 30 30 30 30 30 197 188 188 188 9 9 9 89 89 89 89 89 51 51
 51 128 128 128 128 128 128 203 131 131 30 30 30 30 30 30 188 188 224 224
 224 9 9 89 89 89 81 81 51 51 51 51 128 128 128 128 128 203 203 131
 30 30 30 30 30 232 232 224 224 224 224 224 89 89 81 81 81 81 81 51
 51 51 51 128 128 128 203 203 203 203 30 233 233 233 233 232 232 224 224 224
 224 224 266 266 81 81 81 81 51 51 51 51 51 25 25 25 203 203 286 257
 233 233 233 233 233 233 232 232 224 224 224 266 266 266 266 266 81 81 51 51
 51 51 51 25 25 25 203 203 260 257 257 257 233 233 233 233 4 4 4 224
 266 266 266 266 266 266 266 266 21 51 51 51 25 25 25 25 47 260 260 257
 257 257 257 233 233 233 4 4 4 4 266 266 266 266 266 141 141 141 21 21
 21 51 25 25 25 25 47 47 47 257 257 257 257 257 233 4 4 4 4 4
 266 266 266 284 141 141 141 141 21 21 21 21 21 25 369 369 47 47 47 257
 257 257 257 257 233 4 4 4 4 4 284 284 284 284 141 141 141 141 21 21
 21 21 306 369 369 369 369 47 47 257 257 257 257 158 158 129 129 4 4 4
 183 284 284 284 284 229 229 229 21 21 21 21 369 369 369 369 369 369 263 263
 263 158 158 158 158 129 129 129 183 183 183 183 284 284 229 229 229 229 229 182
 182 182 369 369 369 369 369 369 263 263 263 158 158 158 158 129 129 129 183 183
 183 183 140 229 229 229 229 229 229 182 182 182 182 369 369 369 369 369 263 263
 263 158 158 158 158 129 129 183 183 183 183 140 140 140 229 229 229 229 229 182
 182 182 182 369 369 369 369 369 263 263 263 172 158 158 158 373 129 183 183 183
 140 140 140 140 140 229 229 229 344 344 344 182 182 182 118 118 118 236 296 296
 172 172 172 373 373 373 373 373 183 140 140 140 140 140 140 229 229 344 344 344
 344 344 182 182 118 104 236 236 296 296 172 172 172 373 373 373 373 373 140 140
 140 140 140 140 140 140 200 200 344 344 344 344 332 332 104 104 104 104 296 296
 172 172 172 373 373 373 373 373 140 140 140 140 140 140 140 200 200 200 200 344
 344 17 17 17 104 104 104 104 296 296 296 23 172 373 373 373 373 373 140 140
 140 140 140 140 140 200 200 200 200 200 17 17 17 17 104 104 104 104 391 296
 23 23 23 23 33 373 373 217 217 217 217 345 345 140 247 200 200 200 200 200
 17 17 17 17 104 104 104 104 391 23 23 23 23 23 270 270 217 217 217 217
 345 345 345 345 247 247 200 200 200 200 17 17 17 17 17 391 391 391 391 23
 23 23 23 23 270 270 270 217 217 217 345 345 345 345 247 247 247 247 200 200
 136 136 136 78 78 78 78 391 391 346 23 23 23 270 270 270 270 270 217 345
 44 345 345 345 247 247 247 174 174 174 136 136 78 78 78 78 78 78 346 346
 346 346 343 343 270 270 270 44 44 44 44 44 345 345 247 174 174 174 174 174
 174 78 78 78 78 78 78 78 346 346 346 346 343 343 343 270 270 44 44 44
 44 44 345 285 174 174 174 174 174 174 174 78 78 78 78 78 78 78 346 346
 346 346 343 343 343 343 44 44 44 44 44 44 285 285 302 174 174 174 174 174
 174 78 78 78 78 78 78 78 78 346 346 346 346 37 37 197 197 197 44 44
 197 285 285 285 302 302 174 174 174 174 174 78 78 78 78 78 78 78 221 346
 346 346 30 37 197 197 197 197 197 197 197 285 285 285 302 302 302 174 174 174
 174 78 78 78 78 78 149 149 131 131 30 30 30 30 197 197 197 197 197 197
 197 285 285 285 302 302 302 302 174 174 174 78 78 78 78 149 149 149 149 131
 30 30 30 30 30 197 197 197 197 197 9 9 285 285 302 302 302 302 174 49
 49 128 128 128 128 149 149 149 149 131 30 30 30 30 30 30 197 197 197 197
 9 9 9 89 89 89 89 302 49 49 49 128 128 128 128 128 149 149 149 30
 30 30 30 30 30 30 197 197 197 197 9 9 9 89 89 89 89 89 51 51
 51 128 128 128 128 128 149 203 149 30 30 30 30 30 30 30 317 224 224 224
 224 9 9 89 89 81 81 81 51 51 51 51 128 128 128 128 203 203 203 30
 30 30 30 30 30 317 317 224 224 224 224 224 89 89 81 81 81 81 51 51
 51 51 51 128 128 128 203 203 203 203 30 233 233 233 233 317 317 224 224 224
 224 266 266 266 266 81 81 81 51 51 51 51 25 25 25 25 203 203 203 203
 233 233 233 233 233 317 317 224 224 224 224 266 266 266 266 266 266 266 51 51
 51 51 25 25 25 25 203 203 203 257 257 257 233 233 233 233 4 4 4 224
 266 266 266 266 266 266 266 65 65 155 155 155 25 25 25 25 47 47 257 257
 257 257 257 233 233 233 4 4 4 4 266 266 266 266 266 141 141 141 308 308
 155 155 25 25 25 355 47 47 47 257 257 257 257 52 52 4 4 4 4 4
 284 284 284 284 141 141 141 141 308 308 244 244 306 306 355 355 47 47 47 47
 257 257 52 52 52 52 4 4 4 4 284 284 284 284 141 141 141 141 244 244
 244 244 306 306 306 355 47 47 47 47 225 225 52 52 52 52 129 4 4 183
 183 284 284 284 284 141 141 141 244 244 244 244 306 306 306 355 355 47 47 225
 225 225 52 52 52 129 129 183 183 183 183 183 284 284 229 229 229 229 229 244
 244 244 306 306 369 369 369 47 263 225 225 225 158 158 158 129 129 183 183 183
 183 183 63 63 229 229 229 229 229 182 182 182 182 369 369 369 369 369 263 225
 225 225 158 158 158 129 129 183 183 183 183 183 63 63 63 229 229 229 231 231
 231 231 231 369 369 369 369 369 296 225 225 172 172 374 373 373 373 183 183 183
 140 140 140 63 63 63 63 344 344 344 231 231 231 231 118 161 161 296 296 296
 172 172 172 373 373 373 373 373 183 183 140 140 140 140 63 63 200 344 344 344
 344 231 231 169 161 161 161 161 296 296 172 172 172 373 373 373 373 373 140 140
 140 140 140 140 140 200 200 200 344 344 344 344 223 223 104 104 161 161 296 296
 296 172 172 373 373 373 373 373 140 140 140 140 140 140 140 200 200 200 200 200
 344 344 223 223 104 104 161 161 296 296 296 23 23 246 246 246 246 246 246 140
 366 366 366 140 200 200 200 200 200 200 17 17 17 254 347 104 104 104 19 19
 23 23 23 33 33 246 246 217 217 217 217 366 366 366 200 200 200 200 200 200
 17 17 17 254 347 347 104 104 19 19 23 23 23 33 33 33 246 217 217 217
 217 345 345 345 200 200 200 200 200 200 291 291 291 291 347 347 347 19 19 19
 23 23 23 33 33 33 270 217 217 217 345 345 345 345 160 160 160 200 200 291
 291 291 291 291 78 78 78 19 19 19 23 23 23 33 270 270 270 152 217 217
 44 345 345 345 160 160 310 310 310 310 291 291 291 78 78 78 78 78 346 346
 346 346 346 343 270 270 270 44 44 44 44 328 328 328 160 174 174 310 310 310
 291 78 78 78 78 78 78 78 346 346 346 346 346 343 115 115 115 44 44 44
 44 328 328 328 88 174 174 310 310 310 310 78 78 78 78 78 78 78 346 346
 346 346 346 343 343 115 44 44 44 44 44 328 328 328 88 88 174 174 174 174
 174 78 78 78 78 78 78 78 346 346 346 346 346 346 197 197 197 197 197 44
 197 328 285 285 302 250 250 174 174 174 174 78 78 78 78 78 78 221 221 221
 346 346 30 30 197 197 197 197 197 197 197 197 285 285 302 302 250 174 174 174
 174 78 78 78 78 78 149 149 221 221 30 30 30 30 197 197 197 197 197 197
 354 354 285 285 302 302 302 302 174 174 101 101 101 78 153 153 149 149 149 30
 30 30 30 30 30 197 197 197 197 197 354 354 354 285 302 302 302 302 101 101
 101 101 101 128 153 153 149 149 149 30 30 30 30 30 30 30 197 197 197 354
 354 354 9 89 89 89 89 297 297 101 101 101 128 128 128 153 149 149 149 30
 30 30 30 30 30 30 197 354 354 354 354 9 9 89 89 89 89 297 297 297
 51 128 128 128 128 128 203 203 203 30 30 30 30 30 30 317 317 317 354 354
 224 9 9 89 89 81 81 81 65 51 51 51 128 128 128 128 203 203 203 30
 30 30 30 30 317 317 317 317 224 224 224 224 266 89 81 81 81 65 65 51
 155 155 146 146 146 146 203 203 203 203 30 30 30 30 317 317 317 317 224 224
 224 266 266 266 266 266 81 65 65 51 155 155 25 25 25 25 203 203 203 203
 233 233 233 233 233 317 317 317 224 224 266 266 266 266 266 266 266 65 65 155
 155 155 25 25 25 25 203 203 203 257 257 257 233 233 233 233 4 4 4 224
 283 266 210 210 210 210 210 65 65 65 155 155 155 25 25 25 47 47 47 257
 257 257 257 233 233 303 303 303 303 283 283 210 210 210 210 210 141 141 65 244
 155 155 155 25 355 355 47 47 47 47 257 52 52 52 52 52 303 303 303 283
 210 210 210 210 210 141 141 141 308 308 244 244 306 306 355 355 355 47 47 47
 225 52 52 52 52 52 303 303 303 303 183 284 284 284 141 141 141 141 244 308
 244 244 306 306 306 355 355 47 47 47 225 225 52 52 52 52 303 303 303 183
 183 183 284 284 141 141 141 352 244 244 244 244 306 306 306 355 355 47 47 225
 225 225 52 52 52 52 129 183 183 183 183 183 63 63 299 299 299 352 352 244
 244 244 306 306 306 355 355 47 47 225 225 225 225 52 52 52 129 183 183 183
 183 183 63 63 63 299 299 352 352 244 244 244 306 306 369 369 369 47 225 225
 225 225 374 374 374 374 183 183 183 183 183 63 63 63 63 63 63 352 231 231
 231 231 231 231 369 68 68 68 225 225 225 225 374 374 374 373 373 183 183 183
 183 63 63 63 63 63 63 301 344 344 231 231 231 231 169 169 161 296 296 296
 296 172 172 374 373 373 373 373 183 183 140 63 63 63 63 63 301 301 344 344
 231 231 231 169 169 169 161 161 296 296 296 172 172 373 373 373 373 373 183 140
 140 140 63 63 63 63 301 301 301 344 344 231 223 223 161 161 161 161 296 296
 296 172 172 246 246 246 246 246 246 140 366 366 366 366 63 200 200 200 200 200
 344 223 223 223 161 161 161 161 296 296 296 296 33 246 246 246 246 246 246 217
 366 366 366 366 366 200 200 200 200 200 200 223 223 254 347 347 347 161 19 19
 23 23 33 33 33 246 246 246 217 217 366 366 366 366 366 200 200 200 200 200
 291 291 291 254 347 347 347 19 19 19 23 23 33 33 33 33 246 217 217 217
 366 366 366 366 160 160 200 200 200 291 291 291 291 291 347 347 347 19 19 19
 23 23 33 33 33 33 152 152 152 217 366 366 366 366 160 160 160 160 200 291
 291 291 291 291 347 347 347 19 19 19 23 23 33 33 33 33 152 152 152 152
 44 345 345 160 160 160 160 310 310 291 291 291 291 291 78 78 78 78 346 346
 346 346 33 33 115 115 152 152 152 152 328 328 328 328 160 160 174 310 310 310
 291 291 291 78 78 78 78 78 346 346 346 346 346 115 115 115 115 115 44 44
 328 328 328 328 88 88 88 310 310 293 293 78 78 78 78 78 78 78 346 346
 346 346 275 275 115 115 115 44 44 44 328 328 328 328 88 88 88 174 293 293
 293 78 78 78 78 78 78 221 221 346 346 275 275 275 115 197 197 197 197 197
 328 328 328 328 88 250 250 250 293 293 293 78 78 78 78 78 221 221 221 221
 221 275 275 275 197 197 197 197 197 197 354 354 328 285 250 250 250 250 174 293
 101 101 32 32 32 153 221 221 221 221 221 30 30 30 197 197 197 197 197 197
 354 354 69 69 69 302 302 297 297 101 101 101 101 32 153 153 153 149 221 221
 30 30 30 30 30 197 197 197 197 354 354 354 69 69 69 69 302 297 101 101
 101 101 101 153 153 153 153 149 102 102 30 30 30 30 30 30 197 354 354 354
 354 354 69 69 69 69 297 297 297 101 101 101 101 153 153 153 153 149 102 102
 30 30 30 30 30 30 197 354 354 354 354 354 69 69 69 69 297 297 297 297
 101 101 146 146 146 153 153 203 102 30 30 30 30 30 30 317 317 354 354 354
 224 354 9 89 34 34 34 65 65 65 146 146 146 146 146 146 203 203 203 393
 30 30 30 30 317 317 317 317 224 224 283 283 266 266 34 34 34 65 65 65
 155 155 146 146 146 146 203 203 203 393 393 30 30 30 317 317 317 317 224 283
 283 283 266 266 266 34 34 65 65 65 155 155 155 146 146 146 203 203 203 393
 393 233 233 233 317 317 317 317 283 283 283 283 266 266 266 266 65 65 65 65
 155 155 155 25 25 25 203 203 203 393 257 257 233 233 233 233 317 317 283 283
 283 283 210 210 210 210 65 65 65 65 155 155 155 155 25 355 355 47 47 47
 47 52 52 52 52 303 303 303 303 283 283 210 210 210 210 210 210 65 65 244
 155 155 155 155 355 355 355 47 47 47 47 52 52 52 52 52 303 303 303 283
 283 210 210 210 210 218 218 244 308 308 244 244 306 306 355 355 355 47 47 47
 225 52 52 52 52 52 303 303 303 283 183 210 210 210 218 218 218 244 308 308
 244 244 306 306 355 355 355 47 47 47 225 225 52 52 52 52 303 303 303 183
 183 183 63 63 299 299 299 352 244 244 244 244 306 306 355 355 355 47 47 225
 225 225 52 52 52 52 52 183 183 183 183 63 63 63 299 299 299 352 352 244
 244 191 191 306 355 355 355 47 364 364 225 225 225 52 52 324 324 183 183 183
 183 63 63 63 63 299 299 352 352 360 191 191 191 191 68 68 68 68 225 225
 225 225 374 374 374 324 324 183 183 183 183 63 63 63 63 63 63 352 360 360
 360 231 231 191 68 68 68 68 225 225 225 225 374 374 374 374 374 183 183 183
 63 63 63 63 63 63 63 301 301 360 231 231 231 169 169 169 68 68 296 296
 225 225 374 374 374 373 373 373 183 183 63 63 63 63 63 63 301 301 301 301
 231 231 231 169 169 169 161 161 296 296 296 296 374 374 246 246 246 246 246 183
 140 63 63 63 63 301 301 301 301 301 344 231 223 169 169 169 161 161 296 296
 296 296 172 246 246 246 246 246 246 140 366 366 366 366 63 200 301 301 301 301
 301 223 223 223 169 161 161 161 296 296 296 296 33 246 246 246 246 246 246 366
 366 366 366 366 366 200 200 200 200 200 223 223 223 223 347 347 347 161 19 19
 19 33 33 33 246 246 246 246 217 366 366 366 366 366 160 160 200 200 200 243
 291 291 254 254 347 347 347 19 19 19 19 33 33 33 33 33 246 246 217 366
 366 366 366 366 160 160 160 200 243 243 291 291 291 254 347 347 347 19 19 19
 19 33 33 33 33 33 152 152 152 366 366 366 366 160 160 160 160 160 243 243
 291 291 291 291 347 347 347 19 19 19 19 33 33 33 33 152 152 152 152 152
 366 366 366 160 160 160 160 160 243 243 291 291 291 291 78 78 78 78 346 346
 346 346 268 268 115 115 152 152 152 152 328 328 328 328 160 160 160 310 293 293
 291 291 291 78 78 78 78 78 346 346 346 346 268 268 115 115 115 115 152 152
 328 328 328 328 88 88 88 88 293 293 293 293 78 78 78 78 78 221 221 346
 275 275 275 268 115 115 115 115 197 197 328 328 328 328 88 88 88 88 293 293
 293 293 78 78 78 78 221 221 221 221 275 275 275 268 115 115 197 197 197 197
 328 328 328 328 88 88 88 88 293 293 293 293 32 32 32 78 221 221 221 221
 221 275 275 275 197 197 197 197 197 197 354 328 328 328 250 250 250 250 293 293
 101 101 32 32 32 153 221 221 221 221 221 221 30 30 30 385 385 197 197 354
 354 354 69 69 69 250 250 297 297 297 101 101 101 32 153 153 153 221 221 221
 221 30 30 30 30 385 385 385 354 354 354 354 69 69 69 69 297 297 297 297
 101 101 101 153 153 58 153 153 102 102 102 30 30 30 30 385 385 354 354 354
 354 354 69 69 69 69 297 297 297 297 101 101 101 153 153 153 153 153 102 102
 102 30 30 30 30 385 385 354 354 354 354 354 69 69 69 69 297 297 297 297
 101 101 146 146 146 153 153 153 102 102 30 30 30 30 30 317 317 354 354 354
 283 354 69 34 34 34 34 65 65 65 101 146 146 146 146 146 203 203 393 393
 393 30 30 30 289 317 317 317 354 283 283 283 283 34 34 34 34 65 65 65
 155 155 146 146 146 146 203 203 393 393 393 30 289 289 289 317 317 317 283 283
 283 283 283 34 34 34 34 65 65 65 155 155 146 146 146 146 203 203 393 393
 393 393 289 289 289 289 317 317 283 283 283 283 210 210 210 34 65 65 65 65
 155 155 155 146 146 146 38 38 38 393 393 393 289 289 289 289 317 283 283 283
 283 283 210 210 210 210 65 65 65 65 155 155 155 155 155 38 38 38 38 38
 38 52 52 52 52 303 303 303 283 283 283 210 210 210 210 210 65 65 65 65
 155 155 155 155 355 355 355 47 47 47 225 52 52 52 52 52 303 303 303 283
 283 210 210 210 210 218 218 244 308 308 244 244 155 355 355 355 355 47 47 47
 225 52 52 52 52 52 303 303 303 283 183 210 210 210 218 218 218 244 308 308
 244 244 191 355 355 355 355 47 47 225 225 225 52 52 52 324 324 303 303 183
 183 63 63 63 299 299 218 352 244 244 244 191 191 191 355 355 355 47 47 225
 225 225 52 52 52 324 324 324 183 183 183 63 63 63 299 299 299 352 352 244
 191 191 191 191 355 355 68 68 225 225 225 225 225 52 324 324 324 183 183 183
 183 63 63 63 63 299 299 352 360 360 191 191 191 191 68 68 68 68 225 225
 225 225 225 374 324 324 324 183 183 183 63 63 63 63 63 63 63 352 360 360
 360 360 191 191 68 68 68 68 225 225 225 225 374 374 374 324 324 138 183 183
 63 63 63 63 63 63 63 301 360 360 360 360 360 169 169 169 169 68 68 296
 225 225 374 374 374 373 138 138 138 183 63 63 63 63 63 63 301 301 301 360
 360 360 360 169 169 169 169 169 296 376 376 376 374 374 246 246 138 138 138 138
 366 63 63 63 137 137 301 301 301 301 360 360 169 169 169 169 169 161 296 376
 376 376 376 246 246 246 246 138 138 138 366 366 366 366 137 137 301 301 301 301
 360 223 223 223 169 169 169 161 296 376 376 376 33 246 246 246 246 246 138 366
 366 366 366 366 137 137 301 301 301 301 223 223 223 223 347 347 347 161 19 19
 19 33 33 33 246 246 246 246 145 366 366 366 366 366 137 160 200 243 243 243
 243 291 223 254 347 347 347 19 19 19 19 33 33 33 33 246 246 145 145 366
 366 366 366 366 160 160 160 243 243 243 243 291 291 254 347 347 347 347 19 19
 19 33 33 33 33 33 152 152 152 366 366 366 366 366 160 160 160 243 243 243
 243 291 291 291 347 347 347 347 19 19 19 33 33 33 33 152 152 152 152 152
 366 366 366 160 160 160 160 243 243 243 291 291 291 291 291 347 347 347 19 19
 268 268 268 268 268 115 152 152 152 152 328 328 328 328 160 160 160 243 243 243
 291 291 291 291 78 78 78 221 221 346 346 268 268 268 268 115 115 115 152 152
 328 328 328 328 88 88 88 88 293 293 293 291 291 78 78 78 221 221 221 221
 275 275 268 268 268 115 115 115 197 194 328 328 328 328 88 88 88 88 293 293
 293 293 78 78 78 78 221 221 221 221 275 275 275 268 268 115 197 197 197 194
 328 328 328 328 88 88 88 88 293 293 293 293 32 32 198 198 221 221 221 221
 221 275 275 383 383 383 385 385 194 194 194 328 328 329 329 329 250 297 297 297
 101 101 32 32 198 198 221 221 221 221 221 221 30 383 383 385 385 385 194 194
 354 354 69 329 329 329 297 297 297 297 101 101 101 32 153 153 153 221 221 221
 221 221 30 30 385 385 385 385 354 354 354 354 69 69 329 329 297 297 297 297
 101 101 101 153 153 153 153 153 102 102 102 30 30 30 385 385 385 385 354 354
 354 354 69 69 329 329 297 297 297 297 297 101 101 153 153 153 153 153 102 102
 102 30 30 157 157 385 385 354 354 354 354 354 69 69 329 34 297 297 297 297
 297 101 146 146 146 153 153 153 102 102 30 30 157 157 157 289 289 354 354 354
 283 283 283 34 34 34 34 65 65 65 65 146 146 146 146 146 153 393 393 393
 393 30 157 289 289 289 289 289 283 283 283 283 283 34 34 34 34 65 65 65
 65 155 146 146 146 146 146 38 393 393 393 393 289 289 289 289 289 317 283 283
 283 283 283 34 34 34 34 65 65 65 155 155 146 146 146 146 38 38 38 393
 393 393 289 289 289 289 289 289 283 283 283 283 283 210 34 34 65 65 65 65
 155 155 155 146 146 146 38 38 38 38 393 393 289 289 289 289 289 283 283 283
 283 283 210 210 210 210 65 65 65 65 65 155 41 41 41 41 38 38 38 38
 125 125 125 52 52 303 303 303 283 283 283 283 210 210 210 210 65 65 65 65
 65 41 41 41 41 41 38 38 38 38 225 225 52 52 52 52 303 303 283 283
 283 210 210 210 210 218 218 65 308 244 244 41 41 41 41 355 355 47 47 225
 225 225 52 52 52 52 303 303 303 283 283 210 210 210 218 218 218 244 308 244
 191 191 191 41 355 355 355 47 47 225 225 225 52 52 52 324 324 324 303 283
 183 63 63 63 299 299 218 352 244 191 191 191 191 191 355 355 355 47 47 225
 225 225 52 52 324 324 324 324 183 183 183 63 63 63 63 299 299 352 352 191
 191 191 191 191 355 68 68 68 225 225 225 225 225 52 324 324 324 324 183 183
 183 63 63 63 63 335 335 335 360 360 191 191 191 191 68 68 68 68 225 225
 225 225 225 374 324 324 324 324 183 183 63 63 63 63 63 335 335 335 360 360
 360 360 360 191 169 68 68 68 68 225 225 225 225 374 324 324 92 92 138 183
 380 380 63 63 63 335 335 301 360 360 360 360 360 169 169 169 169 169 169 376
 225 225 374 374 92 92 138 138 138 138 380 380 380 137 137 137 137 301 301 360
 360 360 360 169 169 169 169 169 376 376 376 376 331 92 92 92 138 138 138 138
 380 380 380 137 137 137 137 301 301 360 360 360 360 169 169 169 169 169 376 376
 376 376 331 246 92 92 92 138 138 138 380 380 380 137 137 137 137 301 301 301
 360 223 223 230 230 230 230 230 376 376 376 376 331 246 246 246 246 246 138 138
 366 366 366 137 137 137 137 137 137 301 243 223 223 223 230 230 230 230 376 376
 376 331 33 33 246 246 246 145 145 366 366 366 366 137 137 137 137 137 243 243
 243 243 223 230 230 230 230 230 19 19 19 33 33 33 33 246 145 145 145 366
 366 366 366 366 137 160 137 243 243 243 243 243 291 254 230 230 230 230 19 19
 19 33 33 33 33 33 145 145 145 366 366 366 366 366 160 160 160 243 243 243
 243 243 291 291 220 220 220 220 19 19 60 268 268 268 268 152 152 152 152 152
 366 366 366 160 160 160 160 243 243 243 243 243 291 291 220 220 220 220 60 60
 60 268 268 268 268 268 152 152 152 152 328 328 328 328 160 160 243 243 243 243
 243 291 291 291 220 220 220 221 221 60 60 268 268 268 268 268 115 152 152 362
 328 328 328 328 88 88 88 215 215 215 215 215 291 78 198 198 221 221 221 221
 60 60 268 268 268 268 115 115 194 194 328 328 328 328 88 88 88 215 215 215
 215 215 198 198 198 198 221 221 221 221 221 221 268 268 268 383 383 383 194 194
 194 328 328 328 340 340 340 340 215 215 215 215 198 198 198 198 198 221 221 221
 221 221 275 383 383 383 383 385 194 194 194 328 328 329 329 340 340 297 297 297
 297 101 32 198 198 198 198 221 221 221 221 221 221 383 383 383 385 385 194 194
 194 354 329 329 329 329 340 297 297 297 297 101 101 198 198 198 198 221 221 221
 221 221 142 383 383 385 385 385 194 194 354 354 329 329 329 329 297 297 297 297
 297 101 101 153 153 153 153 153 221 102 221 221 142 142 383 385 385 385 354 354
 354 354 329 329 329 329 297 297 297 297 297 101 101 153 153 153 153 153 102 102
 102 30 157 157 157 385 385 385 354 354 354 354 329 329 329 329 297 297 297 297
 297 101 146 132 267 267 153 153 102 6 6 30 157 157 157 289 289 389 354 354
 283 283 314 314 34 34 297 297 96 96 96 146 146 132 132 267 267 38 393 6
 6 6 157 157 289 289 289 389 283 283 283 283 283 34 34 34 34 65 65 65
 65 155 132 132 132 132 38 38 38 6 6 6 289 289 289 289 289 289 283 283
 283 283 283 34 34 34 34 65 65 65 65 155 155 132 132 38 38 38 38 38
 6 289 289 289 289 289 289 289 283 283 283 283 283 210 34 34 65 65 65 65
 65 155 155 41 41 38 38 38 38 38 38 289 289 289 289 289 289 283 283 283
 357 357 357 357 210 210 65 65 65 195 195 41 41 41 41 41 38 38 38 125
 125 125 125 125 125 31 31 31 31 386 357 357 357 210 210 210 65 65 65 65
 195 41 41 41 41 41 41 38 38 125 125 125 125 125 52 31 31 31 31 283
 357 357 210 210 210 365 114 114 65 244 244 41 41 41 41 41 355 47 125 125
 125 125 125 125 52 324 324 324 303 283 173 173 365 365 365 365 365 114 308 191
 191 191 41 41 95 95 355 47 47 225 225 238 238 52 324 324 324 324 324 283
 173 173 365 365 365 365 365 114 244 191 191 191 191 191 95 95 280 280 238 238
 238 238 238 238 324 324 324 324 324 324 173 173 63 365 335 335 335 335 191 191
 191 191 191 191 280 280 280 280 238 238 238 238 238 238 324 324 324 324 324 183
 380 63 63 335 335 335 335 335 360 360 191 191 191 191 280 280 280 68 121 121
 238 238 238 238 324 324 324 324 324 380 380 380 380 335 335 335 335 335 360 360
 360 360 360 191 169 169 169 169 121 121 121 121 121 92 92 92 92 92 92 380
 380 380 380 380 335 335 335 335 360 360 360 360 360 169 169 169 169 169 121 121
 121 121 121 92 92 92 92 138 138 380 380 380 380 137 137 137 137 137 360 360
 360 360 360 169 169 169 169 169 169 376 376 331 331 92 92 92 92 138 138 380
 380 380 380 137 137 137 137 137 137 360 360 360 360 230 169 169 230 230 230 376
 376 331 331 92 92 92 92 138 138 380 380 380 380 137 137 137 137 137 137 301
 360 360 223 230 230 230 230 230 230 376 376 331 331 331 92 92 92 92 138 380
 366 366 137 137 137 137 137 137 137 137 243 223 223 230 230 230 230 230 230 376
 331 331 331 331 92 92 92 145 145 145 366 366 137 137 137 137 137 137 243 243
 243 243 230 230 230 230 230 230 230 19 331 331 331 331 33 246 145 145 145 145