# vtk DataFile Version 2.0
Data set from IO Version 6.4.197.9a0dee2
ASCII

DATASET RECTILINEAR_GRID
DIMENSIONS 31 31 31
X_COORDINATES 31 float
-2.866667 2.866667 8.599999 14.333332 20.066666 25.799999 31.533331 37.266666 43.000000 48.733334 54.466667 60.200001 65.933327 71.666664 77.399994 83.133331 88.866661 94.599991 100.333328 106.066658 111.799995 
117.533325 123.266663 129.000000 134.733322 140.466660 146.199997 151.933319 157.666656 163.399994 169.133331 
Y_COORDINATES 31 float
-2.866667 2.866667 8.599999 14.333332 20.066666 25.799999 31.533331 37.266666 43.000000 48.733334 54.466667 60.200001 65.933327 71.666664 77.399994 83.133331 88.866661 94.599991 100.333328 106.066658 111.799995 
117.533325 123.266663 129.000000 134.733322 140.466660 146.199997 151.933319 157.666656 163.399994 169.133331 
Z_COORDINATES 31 float
-2.866667 2.866667 8.599999 14.333332 20.066666 25.799999 31.533331 37.266666 43.000000 48.733334 54.466667 60.200001 65.933327 71.666664 77.399994 83.133331 88.866661 94.599991 100.333328 106.066658 111.799995 
117.533325 123.266663 129.000000 134.733322 140.466660 146.199997 151.933319 157.666656 163.399994 169.133331 
CELL_DATA 27000
SCALARS FeatureIds int 1
LOOKUP_TABLE default
 21 21 240 240 240 240 240 240 240 189 189 189 189 189 189 371 371 371 371 371
 27 27 27 3 3 21 21 21 21 21 21 21 240 240 240 240 240 240 240 189
 189 189 189 189 189 371 371 371 371 371 371 27 3 3 3 21 21 21 21 21
 265 265 265 240 240 240 240 135 135 271 189 189 189 189 371 371 371 371 371 371
 371 27 3 3 3 21 21 21 21 21 265 265 265 265 240 240 135 135 135 271
 271 271 189 189 371 371 371 371 371 371 371 312 3 3 3 21 21 21 21 21
 265 265 265 265 240 240 135 135 135 271 271 271 271 41 373 371 371 371 371 371
 312 312 328 328 328 21 21 21 21 21 265 265 265 265 240 271 271 271 271 271
 271 271 41 41 41 373 371 371 371 371 312 328 328 328 328 328 21 21 21 21
 28 28 28 28 362 271 271 271 271 271 271 271 41 41 41 41 150 150 150 150
 328 328 328 328 328 328 328 21 110 28 375 375 375 362 362 362 362 271 271 271
 271 41 41 41 41 41 150 150 150 150 38 328 328 328 328 328 328 110 110 110
 375 375 375 362 362 362 362 362 271 271 271 41 41 41 41 41 150 150 90 90
 38 38 328 328 328 328 110 110 110 110 375 375 375 362 362 362 362 362 198 198
 198 198 41 41 41 41 150 90 90 90 38 38 38 328 328 110 110 110 110 110
 375 375 380 380 362 362 362 198 198 198 198 198 198 41 163 163 87 87 90 90
 38 38 297 297 92 92 110 110 110 110 375 375 380 380 380 123 123 198 198 198
 198 198 163 163 163 163 87 87 54 54 297 297 297 297 92 92 92 92 110 110
 213 213 123 123 123 123 123 198 198 198 198 198 163 163 163 163 54 54 54 54
 297 297 297 297 92 92 92 92 92 92 213 213 123 123 123 123 123 123 198 198
 198 163 163 163 163 163 54 54 54 54 54 54 297 92 92 92 92 92 71 71
 132 132 132 132 123 123 123 123 123 230 230 321 321 163 163 163 54 54 54 245
 245 245 245 71 71 71 71 71 71 71 132 132 132 132 132 270 270 270 230 230
 230 230 321 321 321 321 54 54 245 245 245 245 18 71 71 71 71 71 71 71
 71 132 132 132 270 270 270 270 230 230 230 230 321 321 321 321 321 245 245 245
 245 342 18 71 71 71 71 71 71 71 71 71 132 270 270 270 270 270 230 230
 230 230 321 321 321 321 218 218 218 218 342 342 18 18 71 71 71 71 71 71
 71 71 270 270 270 270 270 270 230 230 230 230 230 179 179 179 218 218 218 218
 218 342 18 18 71 71 71 71 71 71 315 315 270 270 270 270 270 270 230 230
 230 230 179 179 179 179 218 218 218 218 218 218 18 18 71 71 71 71 71 71
 315 315 51 51 51 51 51 51 230 230 230 179 179 179 179 179 286 286 218 218
 218 94 94 18 71 71 383 383 383 315 315 315 51 51 51 51 51 51 276 279
 179 179 179 179 179 179 286 286 286 218 94 94 94 94 94 383 383 383 383 315
 334 51 51 51 51 51 51 276 276 279 279 179 179 179 179 179 286 286 286 218
 94 94 94 94 317 317 383 383 383 334 334 334 51 51 51 51 276 276 276 279
 279 279 179 179 179 179 248 248 248 248 94 317 317 317 317 317 317 383 334 334
 334 334 200 200 51 51 276 276 279 279 279 279 179 179 179 248 248 248 248 248
 317 317 317 317 317 317 317 334 334 334 222 200 200 200 200 200 276 276 279 279
 279 279 279 179 248 248 248 248 248 248 248 317 317 317 317 317 317 222 222 222
 222 48 200 200 200 200 200 276 279 279 279 279 279 248 248 248 248 248 248 248
 27 317 317 317 317 317 317 222 222 222 222 48 200 200 200 200 319 319 319 279
 279 279 189 189 248 248 248 248 248 27 27 27 27 317 317 317 222 222 222 222
 222 48 200 200 200 200 319 319 319 319 189 189 189 189 189 371 371 371 371 27
 27 27 27 27 317 21 21 21 222 222 222 48 200 200 240 240 240 319 319 189
 189 189 189 189 189 371 371 371 371 371 27 27 27 27 27 21 21 21 21 21
 21 21 240 240 240 240 240 240 76 76 189 189 189 189 189 371 371 371 371 371
 27 27 27 3 3 21 21 21 21 21 21 21 240 240 240 240 240 240 240 76
 189 189 189 189 189 371 371 371 371 371 27 27 3 3 3 21 21 21 21 21
 265 265 265 240 240 240 240 240 271 271 189 189 189 189 189 371 371 371 371 371
 371 27 3 3 3 21 21 21 21 21 265 265 265 240 240 240 240 135 271 271
 271 271 189 189 373 371 371 371 371 371 312 312 312 3 3 21 21 21 21 21
 265 265 265 265 240 240 271 271 271 271 271 271 271 373 373 373 373 371 371 312
 312 312 312 312 328 21 21 21 21 21 28 28 28 28 28 271 271 271 271 271
 271 271 271 41 373 373 373 373 371 312 312 312 312 328 328 277 277 21 21 21
 28 28 28 28 362 271 271 271 271 271 271 271 41 41 373 373 373 373 150 312
 312 312 328 328 328 328 277 277 110 28 375 375 375 362 362 362 362 271 271 271
 271 271 41 41 41 41 373 150 150 38 38 38 328 328 328 328 110 110 110 110
 375 375 375 362 362 362 362 362 271 271 271 271 41 41 41 41 150 150 90 38
 38 38 38 328 328 328 110 110 110 110 375 375 375 362 362 362 362 362 362 271
 198 198 41 41 182 87 87 90 90 38 38 38 38 328 328 110 110 110 110 110
 375 375 375 362 362 362 362 362 198 198 198 198 198 182 163 87 87 87 87 38
 38 38 38 328 92 92 110 110 110 110 375 375 375 123 123 123 123 198 198 198
 198 198 198 163 163 163 87 87 54 54 54 38 297 297 92 92 92 110 110 375
 213 213 213 123 123 123 123 123 198 198 198 198 163 163 163 163 54 54 54 54
 54 54 297 92 92 92 92 92 92 375 213 213 213 123 123 123 123 123 198 198
 198 321 321 321 163 163 54 54 54 54 54 54 54 18 92 92 92 92 92 213
 213 213 213 123 123 123 123 123 123 230 321 321 321 321 321 321 54 54 54 54
 54 54 18 18 18 71 71 71 71 71 143 143 132 132 270 270 270 270 230 230
 321 321 321 321 321 321 54 54 54 54 54 18 18 18 18 71 71 71 71 71
 143 143 132 270 270 270 270 270 230 230 321 321 321 321 321 321 321 54 245 245
 18 18 18 18 18 71 71 71 71 143 143 143 270 270 270 270 270 270 230 230
 230 321 321 321 321 321 321 218 218 218 218 18 18 18 18 71 71 71 71 143
 143 143 270 270 270 270 270 270 230 230 230 230 321 321 321 321 218 218 218 218
 218 18 18 18 18 71 71 71 71 143 143 143 9 9 270 270 270 270 230 230
 230 230 179 179 179 179 218 218 218 218 218 218 18 18 18 71 71 383 383 143
 315 315 51 51 51 51 51 51 51 147 147 179 179 179 179 179 286 218 218 218
 218 218 18 18 18 71 383 383 383 315 315 334 51 51 51 51 51 51 276 276
 147 179 179 179 179 179 286 218 218 218 218 94 369 369 369 383 383 383 383 383
 334 334 51 51 51 51 51 276 276 276 279 179 179 283 179 179 286 286 286 218
 369 369 369 369 369 78 383 383 383 334 334 334 334 51 51 51 276 276 276 276
 279 279 179 283 179 179 290 56 56 369 369 369 369 369 369 78 78 383 334 334
 334 334 334 200 51 51 276 276 276 279 279 279 161 283 179 290 290 56 56 56
 369 369 369 369 317 317 78 334 334 334 334 334 200 200 200 200 276 276 276 279
 279 161 161 161 290 290 290 290 248 248 369 369 317 317 317 317 317 334 334 334
 222 222 200 200 200 200 276 276 279 279 161 161 161 161 290 290 290 290 248 27
 27 27 317 317 317 317 222 222 222 222 222 222 200 200 200 200 319 319 76 76
 76 161 189 189 114 290 290 290 27 27 27 27 27 27 208 208 208 222 222 222
 222 222 200 200 200 200 319 76 76 76 76 189 189 189 114 114 114 371 27 27
 27 27 27 27 208 208 21 21 222 222 222 222 200 200 240 240 240 76 76 76
 76 189 189 189 189 114 371 371 371 27 27 27 27 27 208 21 21 21 21 21
 21 21 240 240 240 240 240 240 76 76 201 189 189 189 114 114 114 371 371 27
 27 27 27 3 3 21 21 21 21 21 21 21 240 240 240 240 240 240 76 76
 189 189 189 189 189 114 371 371 371 371 27 27 3 3 3 21 21 21 21 21
 21 265 265 240 240 240 240 240 271 271 271 189 189 189 189 371 371 371 371 371
 27 27 3 3 3 21 21 21 21 21 265 265 265 240 240 240 240 271 271 271
 271 271 271 373 373 373 373 371 371 312 312 312 312 312 277 21 21 21 21 21
 28 28 28 28 240 240 271 271 271 271 271 271 271 373 373 373 373 373 373 312
 312 312 312 312 277 277 277 314 314 28 28 28 28 28 28 271 271 271 271 271
 271 271 271 373 373 373 373 373 373 312 312 312 312 312 277 277 277 314 314 28
 28 28 28 28 28 362 271 271 271 271 271 271 271 373 373 373 373 373 373 312
 312 312 312 277 277 277 277 314 314 28 375 375 375 375 362 362 362 271 271 271
 271 271 271 373 373 373 373 373 373 312 312 312 312 328 277 277 277 314 314 375
 375 375 375 375 362 362 362 362 271 271 271 271 271 41 182 373 373 373 90 38
 38 38 38 328 328 110 110 110 110 375 375 375 375 375 362 362 362 362 362 271
 271 198 182 182 182 182 182 87 87 38 38 38 38 328 110 110 110 110 110 375
 375 375 375 375 362 362 362 362 198 198 198 198 182 182 182 182 87 87 87 38
 38 38 38 38 29 110 110 110 110 375 375 375 375 375 362 362 362 198 198 198
 198 198 198 182 182 182 87 87 54 54 54 38 38 38 92 92 92 110 110 375
 213 213 213 123 123 123 123 123 198 198 198 198 321 321 321 321 54 54 54 54
 54 54 54 329 92 92 92 92 217 375 213 213 213 123 123 123 123 123 198 198
 321 321 321 321 321 321 54 54 54 54 54 54 54 341 341 341 341 217 217 213
 213 213 213 123 123 123 123 123 123 321 321 321 321 321 321 321 54 54 54 54
 54 54 18 18 18 341 341 217 143 143 143 143 213 270 270 270 270 270 347 321
 321 321 321 321 321 321 321 54 54 54 54 18 18 18 18 18 71 71 143 143
 143 143 143 270 270 270 270 270 347 347 321 321 321 321 321 321 321 54 54 54
 18 18 18 18 18 18 71 71 143 143 143 143 143 270 270 270 270 270 347 347
 347 321 321 321 321 321 321 218 218 218 18 18 18 18 18 18 71 143 143 143
 143 143 9 9 270 270 270 270 347 347 347 321 321 321 321 321 352 352 218 218
 218 18 18 18 18 18 71 71 143 143 143 143 9 9 9 270 270 270 147 147
 147 321 321 321 321 352 352 352 218 218 218 18 18 18 18 18 383 383 383 143
 143 9 9 9 9 51 51 51 147 147 147 283 283 283 283 283 142 142 142 218
 218 18 18 18 18 18 383 383 383 143 334 334 9 51 51 51 51 51 147 147
 147 283 283 283 283 283 142 142 142 142 218 369 369 369 369 78 383 383 383 383
 334 334 334 51 51 51 51 276 276 147 147 283 283 283 283 283 142 142 142 142
 369 369 369 369 369 78 78 383 334 334 334 334 334 51 51 51 276 276 276 301
 301 283 283 283 283 56 56 56 56 56 369 369 369 369 369 78 78 334 334 334
 334 334 334 334 51 51 276 276 276 301 161 161 161 161 283 290 56 56 56 56
 369 369 369 369 369 78 78 334 334 334 334 334 334 200 200 200 276 276 276 161
 161 161 161 161 290 290 290 290 56 56 369 369 369 369 369 78 78 334 334 334
 334 334 200 200 200 200 276 276 276 161 161 161 161 161 290 290 290 290 56 56
 27 27 27 208 208 208 334 334 222 222 222 222 200 200 200 200 200 76 76 76
 201 201 201 201 114 290 290 290 27 27 27 27 27 208 208 208 208 222 222 222
 222 222 200 200 200 200 76 76 76 76 76 201 201 201 114 114 114 114 27 27
 27 27 27 208 208 208 208 21 222 222 222 222 200 200 240 240 240 76 76 76
 76 201 189 189 114 114 114 114 27 27 27 27 27 27 208 208 21 21 21 21
 21 282 282 361 361 361 361 361 76 76 201 201 201 189 114 114 114 114 371 27
 27 27 27 27 208 21 21 21 21 21 21 282 282 361 361 361 361 361 201 201
 201 201 189 189 114 114 114 114 371 27 27 27 3 3 3 21 21 21 21 21
 21 282 265 361 361 240 240 240 271 271 271 271 189 189 189 371 371 371 2 2
 2 2 3 3 3 21 21 21 21 21 28 28 28 28 361 240 240 271 271 271
 271 271 271 108 373 373 373 373 2 2 312 312 312 277 277 277 314 314 314 21
 28 28 28 28 28 271 271 271 271 271 271 271 271 108 373 373 373 373 2 312
 312 312 312 277 277 277 277 314 314 314 28 28 28 28 28 271 271 271 271 271
 271 271 108 108 373 373 373 373 373 312 312 312 312 277 277 277 277 314 314 28
 28 28 28 28 362 362 271 271 271 271 271 271 271 108 373 373 373 373 373 312
 312 312 312 277 277 277 277 314 314 314 375 375 375 375 362 362 362 271 271 271
 271 271 271 108 373 373 373 373 233 312 312 312 312 277 277 277 314 314 314 375
 375 375 375 375 362 362 362 362 271 271 271 271 182 182 182 182 182 233 192 192
 192 192 192 192 29 29 29 110 375 375 375 375 375 375 362 362 362 362 362 271
 271 271 182 182 182 182 182 182 192 192 192 192 192 192 29 29 29 110 375 375
 375 375 375 362 362 362 362 362 198 198 198 198 182 182 182 182 182 87 192 192
 192 192 192 192 29 29 29 110 375 375 375 375 375 362 362 362 362 362 198 198
 198 198 182 182 182 182 182 54 54 54 192 192 192 329 29 29 217 217 217 375
 213 213 213 213 98 98 98 98 198 198 198 321 321 321 321 321 54 54 54 54
 354 354 329 329 341 341 217 217 217 217 213 213 213 213 123 123 123 123 198 198
 321 321 321 321 321 321 54 54 54 354 354 354 329 329 341 341 341 217 217 213
 213 213 213 213 123 123 123 259 259 321 321 321 321 321 321 321 321 54 54 354
 354 354 18 18 18 341 217 217 217 217 143 213 213 213 259 259 259 259 347 321
 321 321 321 321 321 321 321 235 54 354 354 18 18 18 18 18 18 143 143 143
 143 143 213 270 270 270 270 270 347 347 153 321 321 321 321 321 321 235 54 354
 18 18 18 18 18 18 18 143 143 143 143 143 143 270 270 270 270 270 347 347
 347 321 321 321 321 321 321 142 142 142 18 18 18 18 18 18 18 143 143 143
 143 143 9 9 9 270 270 270 153 347 347 321 321 321 321 321 352 352 142 142
 142 18 18 18 18 18 18 143 143 143 143 143 9 9 9 9 9 147 147 147
 147 147 321 321 321 352 352 352 142 142 142 18 18 18 18 18 18 143 143 143
 143 9 9 9 9 9 9 147 147 147 147 147 283 283 283 142 142 142 142 142
 142 18 18 18 18 18 383 383 383 143 334 9 9 9 9 51 51 147 147 147
 147 147 283 283 283 283 142 142 142 142 142 369 369 369 369 78 383 383 383 334
 334 334 334 51 51 51 51 276 301 301 147 283 283 283 283 283 56 56 142 142
 369 369 369 369 78 78 78 383 334 334 334 334 334 88 88 88 88 276 301 301
 301 161 283 283 283 56 56 56 56 56 369 369 369 369 78 78 78 334 334 334
 334 334 334 334 88 88 88 276 301 301 161 161 161 161 283 56 56 56 56 56
 369 369 369 369 369 78 78 334 334 334 334 334 334 374 374 88 88 276 276 161
 161 161 161 161 290 290 290 56 56 56 369 369 369 369 369 78 78 334 334 334
 334 334 334 374 374 200 318 318 161 161 161 161 161 161 290 290 290 290 56 56
 27 369 369 369 208 208 208 334 334 334 334 334 374 374 374 200 318 76 76 76
 201 201 201 201 114 290 290 290 56 27 27 27 27 208 208 208 208 334 334 334
 222 334 374 374 374 164 164 76 76 76 201 201 201 201 114 114 114 114 27 27
 27 27 27 208 208 208 208 21 222 222 222 334 374 374 240 240 164 76 76 76
 201 201 201 201 114 114 114 114 27 27 27 27 27 208 208 208 21 21 21 21
 282 282 282 361 361 361 361 361 201 201 201 201 201 201 114 114 114 114 114 27
 27 27 223 223 223 21 21 21 21 21 282 282 282 361 361 361 361 361 201 201
 201 201 201 201 114 114 114 114 2 2 2 27 223 223 223 21 21 21 21 21
 282 282 282 361 361 361 361 361 271 271 201 201 201 201 114 114 114 2 2 2
 2 2 344 344 344 21 314 314 314 314 28 28 28 361 361 361 361 271 271 271
 271 271 108 108 373 373 373 2 2 2 2 312 344 344 344 277 314 314 314 314
 28 28 28 28 361 361 271 271 271 271 271 271 108 108 373 373 373 373 2 2
 312 312 312 344 277 277 314 314 314 314 28 28 28 28 28 271 271 271 271 271
 271 271 108 108 108 373 373 373 2 2 312 312 312 277 277 277 314 314 314 314
 28 28 28 28 28 362 271 271 271 271 271 271 108 108 108 373 373 233 233 312
 312 312 312 312 277 277 314 314 314 314 375 375 375 375 362 362 362 131 131 271
 271 271 226 226 226 373 233 233 233 192 192 192 192 192 29 29 314 314 314 314
 375 375 375 362 362 362 362 362 131 271 271 271 182 182 182 182 233 233 233 192
 192 192 192 192 29 29 29 314 314 375 375 375 375 362 362 362 362 362 362 271
 271 182 182 182 182 182 182 233 192 192 192 192 192 192 29 29 29 29 375 375
 375 375 375 362 362 362 362 362 362 198 198 182 182 182 182 182 182 182 192 192
 192 192 192 192 29 29 29 29 170 375 375 375 375 98 98 98 98 98 198 198
 351 182 182 182 182 182 182 354 354 354 192 82 82 329 29 29 217 217 170 170
 213 213 213 98 98 98 98 98 98 351 351 351 321 182 182 182 354 354 354 354
 354 354 329 329 329 217 217 217 217 217 213 213 213 213 98 98 98 98 351 351
 351 351 321 321 321 321 354 354 354 354 354 354 329 329 329 341 217 217 217 217
 213 213 213 213 259 259 259 259 351 351 351 321 321 321 321 321 235 235 354 354
 354 354 329 329 329 217 217 217 217 217 53 53 53 53 259 259 259 259 153 153
 153 321 321 321 321 321 235 235 235 354 354 18 18 18 18 18 217 217 217 143
 143 53 53 259 259 259 259 153 153 153 153 321 321 321 321 321 235 235 235 235
 18 18 18 18 18 18 5 5 143 143 143 143 53 259 259 75 75 153 153 153
 153 153 321 321 321 321 235 235 142 142 18 18 18 18 18 18 5 5 143 143
 143 143 9 9 9 9 75 153 153 153 153 153 321 321 321 321 142 142 142 142
 142 18 18 18 18 18 5 5 143 143 143 143 9 9 9 9 9 147 147 147
 147 147 216 216 216 142 142 142 142 142 142 18 18 18 18 18 5 5 143 143
 143 9 9 9 9 9 9 147 147 147 147 147 216 216 216 142 142 142 142 142
 142 142 18 18 18 18 5 383 383 143 334 9 9 9 9 9 9 147 147 147
 147 147 216 216 216 216 142 142 142 142 142 369 369 369 369 78 78 383 334 334
 334 334 334 88 88 88 88 301 301 301 301 147 216 216 216 216 56 56 142 142
 369 369 369 369 369 78 78 334 334 334 334 334 334 88 88 88 88 301 301 301
 301 161 283 283 283 56 56 56 56 56 369 369 369 369 369 78 78 334 334 334
 334 334 334 88 88 88 88 301 301 301 161 161 239 239 239 56 56 56 56 56
 369 369 369 369 369 78 78 334 334 334 334 334 334 374 374 88 88 318 301 161
 161 161 239 239 239 290 56 56 56 56 56 369 369 369 369 78 78 334 334 334
 334 334 374 374 374 374 318 318 318 161 161 161 201 239 239 290 290 56 56 56
 56 369 118 118 118 208 334 334 334 334 334 374 374 374 374 374 318 318 318 201
 201 201 201 201 114 290 290 290 56 27 27 27 118 118 208 208 208 334 334 334
 334 374 374 374 374 164 164 318 318 201 201 201 201 201 114 114 114 114 114 27
 27 27 118 208 208 208 208 334 334 222 282 282 374 374 164 164 164 318 201 201
 201 201 201 201 114 114 114 114 114 27 27 27 27 208 208 208 21 21 21 21
 282 282 282 361 361 361 361 361 201 201 201 201 201 201 201 114 114 128 128 128
 128 128 223 223 223 223 21 21 21 107 282 282 282 361 361 361 361 361 201 201
 201 201 201 201 201 114 114 2 2 2 2 2 223 223 223 223 21 21 21 107
 282 282 282 361 361 361 361 361 201 201 201 201 201 201 201 355 355 2 2 2
 2 2 344 344 344 314 314 314 314 314 282 282 282 361 361 361 361 271 271 271
 271 271 108 108 108 355 355 2 2 2 2 2 344 344 344 314 314 314 314 314
 314 28 28 28 361 361 271 271 271 271 271 271 108 108 108 373 355 2 2 2
 2 191 191 344 344 314 314 314 314 314 314 28 28 28 28 271 271 131 131 131
 271 271 108 108 108 373 373 373 2 2 191 191 191 191 314 314 314 314 314 314
 314 28 28 28 97 131 131 131 131 131 131 271 108 108 108 108 233 233 233 35
 191 191 191 191 314 314 314 314 314 314 381 381 381 97 97 362 131 131 131 131
 131 196 226 226 226 373 233 233 233 192 192 192 192 192 29 29 314 314 314 314
 381 381 381 97 97 362 362 131 131 131 196 196 226 226 182 182 233 233 233 192
 192 192 192 192 29 29 29 314 314 381 381 381 381 381 362 362 362 249 249 249
 196 196 182 182 182 182 182 233 192 192 192 192 192 192 29 29 29 29 381 381
 381 381 381 381 98 98 98 98 249 249 351 182 182 182 182 182 182 182 192 192
 192 192 192 192 29 29 29 29 170 170 170 381 381 98 98 98 98 98 249 351
 351 266 266 182 182 182 182 354 354 354 82 82 82 329 29 29 217 217 170 170
 170 213 381 98 98 98 98 98 351 351 351 351 266 266 182 182 354 354 354 354
 354 82 329 329 329 217 217 217 217 170 217 213 213 98 98 98 259 259 351 351
 351 351 351 321 321 157 235 354 354 354 354 354 329 329 329 217 217 217 217 217
 53 53 53 259 259 259 259 259 351 351 351 351 351 321 321 157 235 235 354 354
 354 354 329 329 329 217 217 217 217 217 53 53 53 259 259 259 259 259 153 153
 351 351 321 321 321 157 235 235 235 354 354 354 18 18 18 18 217 217 217 53
 53 53 53 259 259 259 259 153 153 153 153 153 321 321 321 157 235 235 235 235
 354 287 287 18 18 18 5 5 5 143 143 53 53 259 75 75 75 153 153 153
 153 153 321 321 321 157 235 235 235 235 18 287 287 18 18 18 5 5 5 143
 143 43 43 9 9 75 75 153 153 153 153 153 284 284 284 284 142 142 142 142
 142 287 287 18 18 18 5 5 5 143 43 43 43 9 9 9 178 178 153 153
 153 153 284 284 284 284 142 142 142 142 142 18 18 18 18 18 5 5 5 43
 43 43 43 9 9 9 178 178 147 147 147 216 216 216 216 216 142 142 142 142
 142 142 18 18 18 57 5 5 224 224 43 43 43 9 9 178 178 178 147 147
 147 216 216 216 216 216 142 142 142 142 142 369 369 124 369 57 57 224 224 224
 334 334 334 88 88 88 88 178 301 301 301 216 216 216 216 216 56 56 142 142
 369 369 124 124 369 338 338 338 334 334 334 334 334 88 88 88 88 88 301 301
 301 216 216 216 216 216 56 56 56 56 369 369 369 369 369 338 338 338 334 334
 334 334 334 88 88 88 88 88 301 301 161 239 239 239 239 56 56 56 56 56
 369 369 369 369 369 338 338 334 334 334 334 334 334 374 374 88 88 88 318 161
 161 161 239 239 239 239 56 56 56 56 56 369 369 369 369 338 338 334 334 334
 334 334 374 374 374 374 318 318 318 201 201 201 239 239 239 239 56 56 56 379
 379 379 118 118 118 118 334 334 334 334 334 374 374 374 374 374 318 318 318 201
 201 201 201 201 201 290 128 128 128 379 379 379 118 118 118 208 26 334 334 334
 334 374 374 374 374 164 318 318 318 201 201 201 201 201 201 114 114 128 128 379
 379 379 118 118 118 208 26 26 334 334 282 282 374 374 164 164 164 318 201 201
 201 201 201 201 201 114 114 128 128 128 128 128 27 208 208 208 26 26 26 26
 107 282 282 361 361 361 361 361 201 201 201 201 201 201 201 114 128 128 128 128
 128 128 223 223 223 223 26 107 107 107 107 282 282 361 361 361 361 361 201 201
 201 201 201 201 201 355 355 128 128 128 128 128 223 223 223 223 314 107 107 107
 282 282 282 361 361 361 361 361 201 201 201 201 201 201 355 355 355 355 2 2
 2 2 344 344 344 314 314 314 107 107 282 282 282 361 361 361 361 271 271 271
 271 271 108 108 355 355 355 355 2 2 2 2 344 344 344 314 314 314 314 314
 314 28 28 28 361 361 361 271 271 271 271 271 108 108 108 355 355 355 2 2
 191 191 191 344 314 314 314 314 314 314 314 28 28 28 97 125 271 131 131 131
 131 108 108 108 108 108 355 355 35 35 191 191 191 191 314 314 314 314 314 314
 381 381 381 97 97 97 131 131 131 131 131 196 108 108 108 108 233 233 35 35
 191 191 191 191 314 314 314 314 314 314 381 381 381 97 97 97 97 131 131 131
 196 196 196 226 226 108 233 233 233 35 192 192 192 192 29 29 314 314 314 381
 381 381 381 97 97 97 249 249 249 131 196 196 196 226 182 182 69 233 233 192
 192 192 192 192 29 29 29 314 381 381 381 381 381 97 97 97 249 249 249 249
 196 196 182 182 182 182 69 69 69 192 192 192 192 192 29 29 29 29 381 381
 381 381 381 381 98 98 98 249 249 249 351 266 266 182 182 182 69 69 141 141
 192 192 192 192 29 29 29 29 381 381 170 381 381 381 98 98 98 98 249 351
 351 266 266 266 182 182 182 354 141 141 141 82 192 329 29 29 217 217 170 170
 170 381 381 98 98 98 98 98 351 351 351 351 266 266 266 182 354 354 354 354
 354 82 329 329 329 217 217 217 217 217 217 213 381 98 98 259 259 259 351 351
 351 351 351 266 157 157 157 354 354 354 354 354 329 329 329 217 217 217 217 217
 53 53 53 259 259 259 259 259 351 351 351 351 351 157 157 157 157 235 354 354
 354 354 329 329 329 217 217 217 217 217 53 53 53 259 259 259 259 259 153 351
 351 351 351 157 157 157 157 235 235 354 354 287 287 287 287 217 217 217 217 53
 53 53 53 259 259 259 259 153 153 153 153 153 321 157 157 157 157 235 235 235
 354 287 287 287 287 287 5 5 5 5 43 43 43 43 75 75 75 153 153 153
 153 153 284 284 157 157 157 235 235 235 287 287 287 287 287 287 5 5 5 5
 43 43 43 43 43 75 75 153 153 153 153 284 284 284 284 284 157 142 142 142
 142 287 287 287 287 287 5 5 5 43 43 43 43 43 43 178 178 178 178 153
 153 284 284 284 284 284 142 142 142 142 142 287 287 287 287 287 5 5 224 43
 43 43 43 43 43 178 178 178 178 178 147 284 284 284 284 284 142 142 142 142
 142 287 287 287 57 57 57 5 224 224 43 43 43 43 43 178 178 178 178 178
 147 216 216 216 216 216 142 142 142 142 142 81 124 124 57 57 57 57 224 224
 43 43 43 88 88 88 178 178 178 178 177 177 216 216 216 216 56 142 142 142
 81 81 124 124 124 338 338 338 334 334 334 334 334 88 88 88 88 178 178 178
 177 177 177 216 216 56 56 56 56 56 81 81 124 124 124 338 338 338 60 334
 334 334 237 237 88 88 88 88 16 16 177 177 239 239 239 239 56 56 56 56
 81 81 81 359 359 338 338 338 334 334 334 334 237 237 237 88 88 16 16 16
 16 16 239 239 239 239 56 56 56 56 81 81 359 359 359 26 26 26 334 334
 334 334 374 374 374 374 318 318 318 16 201 201 239 239 239 239 128 128 128 379
 379 379 118 118 118 26 26 26 26 334 334 374 374 374 374 374 318 318 318 201
 201 201 201 201 201 201 128 128 128 379 379 379 118 118 118 26 26 26 26 26
 334 374 374 374 374 164 318 318 201 201 201 201 201 201 201 114 128 128 128 379
 379 379 118 118 118 26 26 26 26 26 282 282 374 374 164 164 164 318 201 201
 201 201 201 201 201 114 128 128 128 128 128 128 118 118 118 26 26 26 26 26
 107 282 282 361 361 361 361 384 201 201 201 201 201 201 201 128 128 128 128 128
 128 128 223 223 171 26 26 26 107 107 107 282 282 361 361 361 361 361 201 201
 201 201 201 201 355 355 355 128 128 128 128 128 223 223 223 26 26 107 107 107
 107 282 282 361 361 361 361 361 201 201 201 201 201 201 355 355 355 355 228 128
 128 2 344 344 344 314 314 107 107 107 107 282 282 361 361 361 361 361 271 271
 271 201 108 108 355 355 355 355 228 35 35 2 344 344 344 314 314 314 314 314
 314 62 62 247 247 125 125 125 271 271 271 271 108 108 355 355 355 355 35 35
 35 191 191 344 314 314 314 314 314 314 314 381 381 381 125 125 125 125 131 131
 131 196 108 108 108 355 355 355 35 35 35 191 191 191 314 314 314 314 314 314
 381 381 381 97 97 125 125 125 131 131 196 196 196 108 108 108 233 35 35 35
 35 191 191 191 314 314 314 314 314 314 381 381 381 97 97 97 125 125 255 255
 196 196 196 196 226 69 69 35 35 35 35 192 192 192 29 29 314 314 314 381
 381 381 381 97 97 97 97 249 249 255 196 196 196 196 182 69 69 69 69 192
 192 192 192 192 29 29 29 314 381 381 381 381 381 97 97 97 249 249 249 249
 196 196 196 182 182 69 69 69 69 192 192 192 192 192 29 29 29 29 381 381
 381 381 381 381 97 97 249 249 249 249 249 266 266 266 182 69 69 69 141 141
 141 192 192 192 256 256 256 256 381 381 381 381 381 381 98 98 98 249 194 194
 194 266 266 266 266 69 69 69 141 141 141 192 192 192 256 256 256 256 381 381
 381 381 381 204 190 190 190 194 194 194 351 266 266 266 266 266 69 354 141 141
 141 354 329 329 256 256 256 217 217 217 381 204 204 204 190 190 190 194 194 194
 351 351 266 266 157 157 157 354 354 354 354 354 329 329 329 217 217 217 217 217
 53 53 204 204 190 190 190 194 194 351 351 351 351 157 157 157 157 157 354 354
 354 354 287 329 329 217 217 217 217 217 53 53 204 204 259 259 259 259 194 351
 351 351 351 157 157 157 157 157 354 354 354 287 287 287 287 287 217 93 217 217
 36 36 36 204 259 259 259 47 153 153 153 153 321 157 157 157 157 157 235 354
 354 287 287 287 287 287 5 5 5 5 43 43 43 43 43 47 47 47 153 153
 153 153 284 284 157 157 157 157 235 235 287 287 287 287 287 287 5 5 5 5
 43 43 43 43 43 47 47 47 153 153 153 284 284 284 284 284 157 243 243 243
 287 287 287 287 287 287 5 5 5 43 43 43 43 43 43 178 178 178 178 153
 153 284 284 284 284 284 284 243 243 243 243 287 287 287 287 287 5 5 43 43
 43 43 43 43 43 178 178 178 178 178 178 284 284 284 284 284 142 243 243 243
 243 287 287 287 57 57 57 8 224 224 43 43 43 43 43 178 178 178 178 178
 178 284 284 284 284 284 281 142 142 243 81 81 81 124 57 57 57 8 224 224
 43 43 43 43 43 178 178 178 178 178 177 177 177 216 216 216 281 142 142 81
 81 81 81 124 57 57 338 60 8 43 43 43 43 88 88 88 178 178 178 16
 177 177 177 216 216 56 56 56 56 81 81 81 81 124 124 338 338 60 60 334
 334 334 237 237 237 88 88 16 16 16 16 177 177 239 239 176 56 56 56 81
 81 81 81 359 359 338 338 60 60 334 334 237 237 237 237 237 16 16 16 16
 16 16 239 239 239 239 14 56 56 379 81 81 359 359 359 26 26 26 26 26
 26 237 237 237 237 237 16 16 16 16 16 16 201 239 239 176 128 128 128 379
 379 379 359 359 359 26 26 26 26 26 26 26 374 374 374 374 384 16 16 16
 201 201 201 201 201 128 128 128 128 379 379 379 118 118 26 26 26 26 26 26
 26 26 374 374 374 384 384 384 384 201 201 201 201 201 201 201 128 128 128 128
 379 379 118 118 26 26 26 26 26 26 26 26 374 374 164 384 384 384 384 201
 201 201 201 201 201 201 128 128 128 128 128 128 128 171 26 26 26 26 26 26
 107 107 282 361 361 384 384 384 384 201 201 201 201 201 201 128 128 128 128 128
 128 128 171 171 171 26 26 26 26 107 107 282 282 361 361 361 384 384 384 201
 201 201 201 201 228 228 228 228 128 128 128 128 171 171 171 26 26 107 107 107
 107 107 282 247 247 247 247 384 384 201 201 201 201 133 355 355 228 228 228 228
 228 128 344 171 273 273 314 107 107 107 107 62 62 247 247 247 247 247 151 151
 151 151 133 133 133 355 355 228 228 228 228 228 273 273 273 273 314 314 314 314
 62 62 62 247 247 247 125 125 151 151 151 151 133 133 133 355 355 228 228 35
 35 35 35 273 273 273 273 314 314 314 62 62 62 62 247 125 125 125 255 151
 151 196 133 133 133 133 228 228 35 35 35 35 191 273 273 273 273 314 314 62
 62 62 62 62 97 125 125 125 255 255 255 196 196 133 133 133 149 149 149 35
 35 35 191 273 273 273 273 314 314 62 381 381 381 97 97 97 125 125 255 255
 255 196 196 196 133 69 69 149 149 35 35 192 192 273 273 273 273 314 314 381
 381 381 381 97 97 97 97 249 255 255 255 196 196 196 69 69 69 69 69 35
 192 192 192 192 29 29 29 381 381 381 381 381 381 97 97 97 249 249 102 102
 255 196 196 182 69 69 69 69 69 192 192 192 192 192 256 256 256 256 381 381
 381 381 381 381 97 97 249 102 102 102 320 320 320 266 69 69 69 69 69 141
 141 192 192 256 256 256 256 256 381 381 381 381 381 381 190 190 190 102 102 194
 320 320 266 266 266 69 69 69 141 141 141 192 192 256 256 256 256 256 381 381
 381 204 204 204 190 190 190 194 194 194 194 320 266 266 266 69 241 241 241 141
 141 354 329 256 256 256 256 256 217 381 204 204 204 204 190 190 190 194 194 194
 194 194 266 266 157 157 241 241 241 354 354 354 329 256 256 256 256 217 217 217