# vtk DataFile Version 2.0
Data set from IO Version 6.4.197.9a0dee2
ASCII

DATASET RECTILINEAR_GRID
DIMENSIONS 31 31 31
X_COORDINATES 31 float
-2.866667 2.866667 8.599999 14.333332 20.066666 25.799999 31.533331 37.266666 43.000000 48.733334 54.466667 60.200001 65.933327 71.666664 77.399994 83.133331 88.866661 94.599991 100.333328 106.066658 111.799995 
117.533325 123.266663 129.000000 134.733322 140.466660 146.199997 151.933319 157.666656 163.399994 169.133331 
Y_COORDINATES 31 float
-2.866667 2.866667 8.599999 14.333332 20.066666 25.799999 31.533331 37.266666 43.000000 48.733334 54.466667 60.200001 65.933327 71.666664 77.399994 83.133331 88.866661 94.599991 100.333328 106.066658 111.799995 
117.533325 123.266663 129.000000 134.733322 140.466660 146.199997 151.933319 157.666656 163.399994 169.133331 
Z_COORDINATES 31 float
-2.866667 2.866667 8.599999 14.333332 20.066666 25.799999 31.533331 37.266666 43.000000 48.733334 54.466667 60.200001 65.933327 71.666664 77.399994 83.133331 88.866661 94.599991 100.333328 106.066658 111.799995 
117.533325 123.266663 129.000000 134.733322 140.466660 146.199997 151.933319 157.666656 163.399994 169.133331 
CELL_DATA 27000
SCALARS FeatureIds int 1
LOOKUP_TABLE default
 284 284 285 285 285 285 285 285 301 301 93 93 331 331 331 331 393 393 393 393
 393 393 324 324 324 324 284 284 284 284 284 284 285 285 285 285 285 285 301 301
 301 173 331 331 331 331 393 393 393 393 393 324 324 324 324 324 284 284 284 284
 284 284 284 285 285 285 285 285 301 301 301 173 173 173 173 173 393 393 393 393
 393 324 324 324 324 284 284 284 284 284 284 284 313 313 285 285 285 55 301 173
 173 173 173 173 173 173 44 393 393 393 393 393 324 324 284 284 284 284 284 284
 313 313 313 313 313 55 55 55 128 128 173 173 173 173 173 44 44 214 214 214
 214 214 324 324 284 284 284 284 284 284 313 313 313 313 313 55 55 55 128 128
 173 173 173 173 44 44 44 44 214 214 214 214 214 76 284 284 90 90 284 313
 313 313 313 313 313 55 55 55 128 128 268 268 268 44 44 44 44 44 214 214
 214 214 76 76 76 284 90 90 284 313 313 313 313 313 313 313 55 55 239 268
 268 268 268 44 44 44 44 44 214 214 144 144 144 76 76 284 90 90 313 313
 313 313 313 313 313 140 140 140 239 239 268 268 268 44 44 44 44 44 214 144
 144 144 144 144 76 103 103 103 103 313 313 313 313 313 140 140 140 140 239 239
 239 325 325 44 44 44 44 44 44 144 144 144 144 144 144 103 103 103 103 313
 313 313 313 313 140 140 140 140 239 239 239 325 325 325 325 44 44 44 384 144
 144 144 144 144 144 103 103 103 103 103 313 313 313 313 140 140 140 140 155 155
 325 325 325 325 325 325 325 384 384 384 384 144 144 144 144 192 192 192 192 137
 137 137 137 140 140 140 155 155 155 155 155 325 325 325 325 325 32 32 384 384
 384 384 384 144 192 192 192 192 192 137 137 137 137 18 18 18 155 155 155 155
 188 188 188 325 325 325 32 32 384 384 384 384 384 384 192 192 192 192 192 137
 137 210 210 18 18 18 155 155 155 273 188 188 188 188 188 325 32 32 384 384
 384 384 384 384 192 192 192 192 192 137 65 210 210 18 18 18 18 155 273 273
 188 188 188 188 188 188 32 384 384 384 384 384 384 362 192 192 192 192 65 65
 65 210 210 350 350 350 350 350 273 273 188 188 188 188 188 188 32 384 384 384
 384 384 292 362 362 192 111 111 65 65 65 210 350 350 350 350 350 350 236 236
 188 188 188 193 193 193 150 150 384 292 292 292 292 292 362 111 111 111 111 65
 380 380 350 350 350 350 350 350 236 236 236 193 193 193 193 193 150 150 150 150
 292 292 292 292 292 111 111 111 380 380 380 380 350 350 350 350 350 236 236 236
 236 193 193 193 193 193 150 150 150 150 292 292 292 292 292 111 111 111 380 380
 380 64 64 350 350 350 241 236 236 236 236 193 193 193 193 193 150 150 150 150
 292 292 292 292 292 292 111 380 380 380 64 64 64 64 241 241 241 241 236 236
 203 203 193 193 266 266 266 150 150 150 150 292 292 292 292 292 312 312 380 64
 64 64 64 64 64 83 83 83 83 236 203 203 203 266 266 266 266 266 150 150
 150 402 402 402 402 402 312 312 312 64 64 64 64 64 83 83 83 83 83 83
 203 203 203 266 266 266 266 266 300 300 150 402 402 402 402 402 312 312 312 312
 327 327 327 327 83 83 83 83 83 83 203 203 203 266 266 266 266 300 300 300
 300 402 402 402 402 402 312 312 312 312 327 327 327 48 48 48 83 83 83 83
 203 203 203 266 266 266 300 300 300 300 300 300 402 402 402 402 287 312 312 312
 327 327 48 48 48 48 48 83 83 93 93 203 203 266 266 300 300 300 300 300
 300 300 145 402 145 287 287 287 287 287 327 327 48 48 48 48 48 48 93 93
 93 93 93 331 300 300 300 300 300 300 300 329 145 145 145 145 287 287 287 287
 285 285 285 285 285 48 285 285 93 93 93 93 331 331 331 300 300 300 300 329
 329 329 324 324 324 324 284 284 284 284 285 285 285 285 285 285 285 285 301 93
 93 93 331 331 331 300 300 300 393 393 393 393 324 324 324 324 284 284 284 284
 284 284 252 252 252 285 285 301 301 301 93 93 331 331 331 102 393 393 393 393
 393 393 324 324 324 324 284 284 284 284 284 284 252 252 252 285 285 301 301 301
 301 93 331 331 331 27 393 393 393 393 393 324 324 293 324 324 284 284 284 284
 284 284 252 252 285 285 285 301 301 301 301 173 173 173 173 27 27 393 393 393
 393 324 324 324 324 324 284 284 284 284 284 313 313 313 55 55 55 55 301 173
 173 173 173 173 173 27 27 393 393 393 393 393 324 324 324 284 284 284 284 284
 313 313 313 313 55 55 55 55 55 128 173 173 173 173 173 27 44 214 214 214
 214 214 324 324 284 284 90 284 284 284 313 313 313 313 313 55 55 55 55 128
 173 173 173 173 44 44 44 214 214 214 214 214 214 76 90 90 90 90 90 284
 313 313 313 313 313 55 55 55 55 268 268 268 268 44 44 44 44 214 214 214
 214 214 76 76 76 90 90 90 90 313 313 313 313 313 313 55 55 55 239 268
 268 268 268 44 44 44 44 44 214 214 214 144 144 144 76 90 90 90 313 313
 313 313 313 313 313 140 140 140 239 239 268 268 268 44 44 44 44 44 214 144
 144 144 144 144 76 103 103 103 103 313 313 313 313 313 140 140 140 140 239 239
 239 325 325 325 44 44 44 44 144 144 144 144 144 144 144 103 103 103 103 103
 313 313 313 313 140 140 140 140 239 239 239 325 325 325 325 325 44 32 384 144
 144 144 144 376 376 103 103 103 103 103 313 313 313 140 140 140 140 140 239 239
 239 325 325 325 325 325 325 32 384 384 384 144 376 376 376 192 192 192 192 192
 137 137 137 140 140 140 140 140 155 155 239 325 325 325 325 325 32 32 32 384
 384 384 376 376 192 192 192 192 192 192 137 137 137 18 18 155 155 155 155 155
 188 188 188 325 325 32 32 32 32 384 384 384 384 376 192 192 192 192 192 192
 137 210 210 18 18 18 155 155 273 273 188 188 188 188 188 32 32 32 32 384
 384 384 384 362 362 192 192 192 192 192 65 210 210 18 18 18 18 155 273 265
 188 188 188 188 188 188 32 32 384 384 384 208 208 362 362 362 192 192 192 192
 65 210 89 89 350 350 350 350 273 273 188 188 188 188 188 188 32 32 384 384
 208 208 208 362 362 362 111 111 111 111 65 89 89 89 89 350 350 350 273 236
 188 188 188 193 193 193 150 150 292 292 292 292 292 362 362 111 111 111 111 111
 380 89 89 89 89 350 350 350 236 236 236 193 193 193 193 193 150 150 150 292
 292 292 292 292 292 111 111 111 111 111 380 89 89 89 89 350 350 236 236 236
 236 193 193 193 193 193 150 150 150 150 292 292 292 292 292 111 111 111 111 380
 380 64 64 89 89 241 241 241 236 236 236 193 193 193 193 193 150 150 150 150
 292 292 292 292 292 111 111 111 380 380 64 64 64 64 241 241 241 241 241 236
 203 193 193 193 266 266 266 150 150 150 292 292 292 292 292 379 312 312 312 64
 64 64 64 64 241 241 241 241 241 241 203 203 203 266 266 266 266 266 150 150
 150 292 402 402 402 312 312 312 312 312 141 327 141 141 241 241 241 241 241 399
 203 203 203 266 266 266 266 266 300 150 150 402 402 402 402 402 312 312 312 312
 327 327 327 327 241 241 241 83 83 399 203 203 203 266 266 266 266 266 300 300
 156 156 402 402 402 312 312 312 312 312 327 327 327 327 48 48 83 83 399 399
 203 203 203 266 266 266 266 300 300 300 300 300 145 402 145 287 287 287 287 287
 327 327 327 327 48 48 48 83 93 93 93 93 203 266 266 300 300 300 300 300
 300 145 145 145 145 287 287 287 287 287 327 327 327 48 48 48 48 48 93 93
 93 93 93 331 300 300 300 300 329 329 329 329 145 145 145 145 287 287 287 287
 327 132 132 252 252 48 285 285 93 93 93 93 93 331 331 102 102 102 329 329
 329 329 145 145 145 145 163 163 163 163 327 252 252 252 252 285 285 285 93 93
 93 93 93 331 331 102 102 102 329 329 329 329 324 324 324 324 324 284 284 284
 390 252 252 252 252 252 252 301 301 93 93 93 93 331 102 102 102 102 393 393
 393 393 324 324 324 324 284 284 284 284 390 390 252 252 252 252 252 301 301 301
 301 93 93 331 27 27 102 393 393 393 393 393 324 324 324 324 284 284 284 284
 390 390 252 252 252 252 252 301 301 301 301 173 173 173 27 27 27 393 393 393
 393 324 324 324 324 324 284 284 284 284 390 390 187 252 55 55 55 55 301 301
 173 173 173 173 27 27 27 27 393 393 393 393 324 324 324 284 284 284 284 390
 390 313 187 313 55 55 55 55 55 143 173 173 173 271 27 27 27 214 214 214
 214 214 324 324 324 284 90 90 284 390 313 313 313 313 55 55 55 55 55 143
 173 173 271 271 271 44 44 214 214 214 214 214 214 324 90 90 90 90 90 284
 313 313 313 313 55 55 55 55 55 268 268 268 268 271 44 44 44 214 214 214
 214 214 214 76 90 90 90 90 90 313 313 313 313 313 313 55 55 239 239 239
 268 268 268 44 44 44 44 44 214 214 214 214 144 376 376 103 90 103 191 313
 313 313 313 313 313 140 140 239 239 239 239 268 268 44 44 44 44 44 214 144
 144 144 376 376 376 103 103 103 103 313 313 313 313 313 140 140 140 239 239 239
 239 239 325 325 325 44 44 169 144 144 144 376 376 376 376 103 103 103 103 103
 313 313 313 140 140 140 140 140 239 239 239 325 325 325 325 325 325 32 32 144
 144 376 376 376 376 103 103 103 103 103 91 91 91 140 140 140 140 140 239 239
 239 325 325 325 325 325 325 32 32 384 384 376 376 376 376 192 192 192 192 192
 137 91 91 140 140 140 140 140 155 239 239 325 325 325 325 325 32 32 32 384
 384 376 376 376 376 192 192 192 192 192 192 192 91 140 140 155 155 155 155 188
 188 188 188 325 325 325 32 32 32 384 384 384 376 376 362 192 192 192 192 192
 192 192 89 89 18 18 328 328 273 273 188 188 188 188 330 325 32 32 32 384
 384 384 362 362 362 362 192 192 192 192 297 297 89 89 89 133 328 328 273 273
 188 188 188 330 330 330 32 32 32 384 208 208 208 362 362 362 192 192 192 192
 297 297 89 89 89 89 89 328 273 273 188 188 188 188 330 330 32 32 32 208
 208 208 208 362 362 362 111 111 111 297 297 89 89 89 89 89 89 350 273 273
 188 188 188 193 193 193 193 150 292 292 292 292 362 362 362 362 111 111 111 111
 297 89 89 89 89 89 89 89 236 236 286 193 193 193 193 193 193 150 150 292
 292 292 292 292 362 362 111 111 111 111 177 89 89 89 89 89 89 241 236 286
 286 193 193 193 193 193 150 150 150 292 292 292 292 292 292 336 111 111 111 380
 177 177 89 89 89 241 241 241 241 286 286 193 193 193 193 193 150 150 150 150
 292 292 292 292 292 379 379 379 379 379 141 141 141 241 241 241 241 241 241 399
 399 193 193 193 266 266 266 150 150 150 292 292 292 292 379 379 379 379 379 379
 141 141 141 141 241 241 241 241 241 399 399 399 399 266 266 266 266 266 150 150
 156 156 156 402 379 379 379 379 379 379 141 141 141 141 241 241 241 241 399 399
 399 399 399 266 266 266 266 266 266 156 156 156 156 402 402 379 312 312 287 287
 327 327 327 327 241 241 241 399 399 399 399 399 399 266 266 266 266 266 266 156
 156 156 156 402 287 287 287 287 287 287 327 327 327 327 327 241 241 399 399 399
 399 399 399 266 266 266 266 266 300 300 156 156 145 145 145 287 287 287 287 287
 327 327 327 327 154 154 154 154 399 146 146 146 146 266 266 266 300 300 300 329
 329 145 145 145 145 287 287 287 287 287 327 327 327 154 154 154 154 154 146 146
 146 146 146 146 102 102 102 102 329 329 329 329 145 145 145 287 287 287 287 287
 327 132 132 252 252 154 154 154 146 146 93 93 93 331 102 102 102 102 329 329
 329 329 145 145 145 163 163 163 163 163 327 252 252 252 252 252 154 154 93 93
 93 93 93 331 102 102 102 102 329 329 329 329 145 324 324 324 163 163 163 163
 390 283 252 252 252 252 154 154 301 93 93 93 93 19 102 102 102 102 102 329
 329 329 324 324 324 324 324 163 284 284 390 283 252 252 252 252 154 154 301 301
 301 93 19 19 27 27 102 102 393 393 393 393 324 324 324 324 284 284 284 284
 390 390 283 283 283 283 283 301 301 237 237 173 19 19 27 27 27 253 393 393
 393 176 324 324 324 324 284 284 284 284 390 187 187 283 283 283 55 55 237 237
 237 271 271 19 27 27 27 27 393 393 176 176 176 324 324 284 284 284 284 390
 390 187 187 187 55 55 55 55 143 143 143 271 271 271 27 27 27 214 214 214
 214 176 176 176 70 284 90 90 284 390 187 187 187 187 55 55 55 55 143 143
 143 271 271 271 271 271 27 214 214 214 214 214 176 70 70 90 191 191 191 187
 187 187 187 187 55 55 55 55 143 143 143 271 271 271 271 271 271 214 214 214
 214 214 70 70 70 191 191 191 191 191 187 187 313 313 313 55 239 239 239 239
 239 268 271 271 271 271 44 44 214 214 214 376 376 376 376 191 191 191 191 191
 313 313 313 313 313 140 239 239 239 239 239 239 271 271 271 44 44 169 169 214
 376 376 376 376 376 298 298 298 191 191 313 313 313 313 140 140 140 239 239 239
 239 239 325 325 325 321 169 169 169 376 376 376 376 376 376 298 298 298 298 298
 91 91 91 91 140 140 140 239 239 239 239 239 325 325 325 321 321 169 169 376
 376 376 376 376 376 298 298 298 298 298 91 91 91 91 140 140 140 140 239 239
 239 325 325 325 325 321 321 32 32 376 376 376 376 376 376 192 192 192 192 192
 91 91 91 91 140 140 140 140 239 239 239 325 325 325 325 321 321 32 32 384
 384 376 376 376 376 192 192 192 192 192 192 91 91 91 140 140 140 140 155 188
 188 188 188 325 325 321 32 32 32 384 384 376 376 376 362 362 192 192 192 192
 297 297 297 89 328 328 328 328 328 228 188 188 330 330 330 330 32 32 32 354
 384 376 362 362 362 362 362 192 192 297 297 297 89 89 133 133 328 328 328 228
 188 188 330 330 330 330 209 32 354 354 208 208 362 362 362 362 362 297 297 297
 297 297 89 89 133 133 133 328 328 228 188 188 188 330 330 330 209 32 354 354
 208 208 362 362 362 362 362 297 297 297 297 89 89 89 89 89 133 328 328 286
 188 188 188 330 330 330 209 150 292 292 292 292 362 362 362 362 362 111 297 297
 297 89 89 89 89 89 89 89 286 286 286 286 193 193 193 193 193 150 150 292
 292 292 292 362 362 362 362 111 111 297 177 177 89 89 89 89 89 89 286 286
 286 286 193 193 193 193 150 150 150 292 292 292 292 292 336 336 336 111 379 379
 177 177 177 89 89 241 241 241 399 286 286 286 193 193 193 193 150 150 150 292
 292 292 292 292 379 379 379 379 379 379 141 141 141 141 241 241 241 241 399 399
 399 286 193 193 266 266 266 150 150 150 292 292 292 292 379 379 379 379 379 141
 141 141 141 141 241 241 241 241 399 399 399 399 399 266 266 266 266 266 221 156
 156 156 156 156 379 379 379 379 379 141 141 141 141 141 241 241 241 399 399 399
 399 399 399 266 266 266 266 266 266 156 156 156 156 156 379 379 379 379 287 141
 327 327 327 141 141 241 399 399 399 399 399 399 399 266 266 266 266 266 266 156
 156 156 156 156 287 287 287 287 287 287 327 327 327 327 132 154 399 399 399 399
 399 399 399 266 266 266 266 266 300 156 156 156 145 145 145 287 287 287 287 287
 327 327 327 132 132 154 154 154 399 146 146 146 391 391 391 266 102 102 329 329
 329 145 145 145 145 287 287 287 287 287 327 327 132 132 154 154 154 154 146 146
 146 146 146 391 391 102 102 102 329 329 329 329 145 145 145 163 163 163 163 163
 327 132 132 132 154 154 154 154 146 146 146 146 146 391 102 102 102 102 102 329
 329 329 145 145 145 163 163 163 163 163 327 132 132 252 252 252 154 154 146 146
 146 93 93 391 102 102 102 102 102 329 329 329 145 145 145 122 163 163 163 163
 283 283 283 283 252 154 154 154 154 93 93 93 19 19 102 102 102 102 102 295
 329 352 352 324 122 122 122 163 163 163 283 283 283 283 283 283 283 154 237 237
 237 19 19 19 19 253 253 253 253 393 176 176 176 324 324 324 122 163 171 171
 171 283 283 283 283 283 283 237 237 237 237 19 19 19 19 27 253 253 253 393
 176 176 176 176 324 324 157 171 171 171 187 187 283 283 283 283 283 237 237 237
 237 271 19 19 27 27 27 253 253 282 176 176 176 176 176 284 157 171 171 171
 187 187 187 283 283 283 240 240 143 143 143 271 271 271 271 27 27 282 282 282
 282 176 176 70 70 70 191 191 171 187 187 187 187 187 283 240 240 240 143 143
 143 271 271 271 271 100 100 282 282 282 282 176 70 70 70 70 191 191 191 187
 187 187 187 187 152 240 240 240 143 143 143 271 271 271 271 271 271 282 282 282
 282 282 70 70 70 70 191 191 191 191 187 187 187 187 152 152 239 239 38 38
 38 271 271 271 271 271 271 169 282 282 282 282 70 70 70 298 191 191 191 191
 127 127 127 152 152 152 239 239 239 38 38 38 271 271 271 271 169 169 169 282
 376 376 376 376 376 298 298 298 298 191 127 91 91 91 124 140 140 239 239 38
 239 239 325 321 321 321 169 169 169 169 376 376 376 376 376 298 298 298 298 298
 91 91 91 91 124 124 124 38 38 38 38 239 325 321 321 321 321 169 169 169
 376 376 376 376 376 298 298 298 298 298 91 91 91 91 124 124 124 38 38 38
 38 38 325 321 321 321 321 321 169 376 376 376 376 376 376 298 298 298 298 91
 91 91 91 91 124 124 124 38 38 38 38 38 325 321 321 321 321 321 321 376
 376 376 376 376 376 147 22 22 192 91 297 91 91 91 124 124 124 328 38 228
 228 188 188 325 321 321 321 321 32 354 376 376 376 376 147 147 147 192 297 297
 297 297 297 133 328 328 328 328 228 228 228 188 330 330 209 209 209 32 354 354
 354 376 229 362 362 362 31 297 297 297 297 297 297 133 133 133 328 328 228 228
 228 188 330 330 209 209 209 354 354 354 354 354 229 229 362 362 362 297 297 297
 297 297 89 89 133 133 133 328 228 228 228 188 330 330 330 209 209 209 354 354
 354 208 362 362 362 362 362 297 297 297 297 297 89 89 89 133 133 6 228 286
 286 286 106 106 106 209 209 209 354 354 262 262 362 362 362 362 362 297 297 297
 177 177 89 89 89 89 89 6 286 286 286 286 142 142 142 142 209 221 262 262
 262 262 262 362 336 336 336 111 297 297 177 177 177 89 89 89 6 6 286 286
 286 286 142 142 142 142 221 221 221 262 262 262 262 336 336 336 336 336 379 177
 177 177 177 89 89 6 6 6 286 286 286 286 142 142 142 142 221 221 221 292
 262 262 262 336 336 336 379 379 379 177 177 177 141 141 141 241 241 399 399 399
 286 286 286 142 142 377 221 221 221 221 262 262 262 379 379 379 379 379 379 141
 141 141 141 141 141 241 399 399 399 399 399 399 399 142 377 377 377 221 221 221
 156 156 156 156 379 379 379 379 379 141 141 141 141 141 141 241 399 399 399 399
 399 399 399 377 377 377 377 377 221 156 156 156 156 275 275 379 379 379 15 15
 141 141 141 141 141 141 399 399 399 399 399 399 399 399 377 377 377 377 221 156
 156 156 275 275 275 287 287 287 287 141 327 327 327 132 132 132 399 399 399 399
 399 399 399 391 377 377 377 377 71 71 71 71 71 275 275 287 287 287 287 287
 327 327 132 132 132 154 154 154 399 399 399 399 391 391 391 391 102 102 329 71
 71 71 145 145 145 163 163 163 163 163 327 132 132 132 132 154 154 154 146 146
 146 146 391 391 391 102 102 102 329 329 329 329 145 145 145 163 163 163 163 163
 132 132 132 132 154 154 154 154 154 146 146 146 391 391 391 102 102 102 102 329
 329 329 145 145 145 122 163 163 163 163 132 132 132 252 154 154 154 154 154 146
 146 146 391 391 391 102 102 102 102 329 329 352 145 145 122 122 122 163 163 163
 283 283 283 283 283 283 154 154 154 154 93 19 19 19 253 253 253 253 253 295
 295 352 352 352 122 122 122 157 163 163 283 283 283 283 283 283 283 154 237 237
 237 19 19 19 19 253 253 253 253 253 176 176 176 176 157 157 157 157 157 171
 171 283 283 283 283 283 283 237 237 237 237 19 19 19 19 27 253 253 253 253
 176 176 176 176 176 157 157 157 171 171 171 187 283 283 283 283 283 237 237 237
 237 271 19 19 19 27 27 253 253 282 176 176 176 176 176 157 157 157 171 171
 187 187 187 283 283 283 240 240 143 143 143 271 271 271 271 100 100 282 282 282
 282 176 176 70 70 70 183 183 171 171 187 187 187 283 283 240 240 240 143 143
 143 271 271 271 271 100 100 282 282 282 282 176 70 70 70 183 183 191 191 187
 187 187 187 187 152 152 240 240 143 143 143 271 271 271 271 100 100 282 282 282
 282 282 70 70 70 70 191 191 191 187 127 127 127 127 152 152 152 38 38 38
 38 271 271 271 271 271 169 169 282 282 282 282 70 70 276 298 191 191 191 127
 127 127 127 152 152 152 152 38 38 38 38 38 271 271 271 271 169 169 169 282
 282 376 376 376 276 298 298 298 298 127 127 91 91 91 152 152 152 38 38 38
 38 38 271 321 321 321 169 169 169 169 376 376 376 376 276 298 298 298 298 298
 91 91 91 91 124 124 124 38 38 38 38 38 38 321 321 321 321 169 169 169
 376 376 376 376 276 298 298 298 298 298 91 91 91 91 124 124 124 38 38 38
 38 38 38 321 321 321 321 321 169 231 376 376 376 376 376 276 298 22 298 91
 91 91 91 91 124 124 124 38 38 38 38 194 321 321 321 321 321 321 321 354
 376 376 376 376 147 147 22 22 22 91 297 91 91 91 124 124 124 328 228 228
 194 194 194 321 321 321 321 321 354 354 354 376 376 376 147 147 147 86 297 297
 297 297 297 133 133 328 328 328 228 228 228 194 194 330 209 209 209 354 354 354
 354 354 229 229 147 147 31 31 297 297 297 297 297 133 133 133 328 228 228 228
 228 194 194 106 209 209 209 354 354 354 354 354 229 229 229 31 31 31 297 297
 297 297 89 89 133 133 133 228 228 228 228 194 106 106 209 209 209 354 354 354
 354 354 229 229 229 31 31 31 297 297 297 297 89 89 133 133 133 6 6 228
 286 106 106 106 106 106 209 354 354 354 262 262 262 362 362 336 31 31 297 297
 177 177 89 89 89 6 6 6 6 286 286 286 142 142 142 142 221 221 262 262
 262 262 262 336 336 336 336 336 297 297 177 177 177 89 6 6 6 6 286 286
 286 286 142 142 142 142 221 221 221 262 262 262 262 262 336 336 336 336 336 177
 177 177 177 177 6 6 6 6 399 286 286 286 142 142 142 142 221 221 221 221
 262 262 262 262 336 336 336 379 379 177 177 177 141 141 6 6 6 399 399 399
 286 286 286 142 142 377 221 221 221 221 221 262 262 262 379 379 379 379 379 141
 141 141 141 141 141 6 399 399 399 399 399 399 399 377 377 377 377 221 221 221
 221 156 156 275 379 379 379 379 15 15 141 141 141 141 141 141 399 399 399 399
 399 399 399 377 377 377 377 221 221 221 156 156 275 275 275 379 379 379 15 15
 141 141 141 141 141 141 399 399 399 399 399 399 399 377 377 377 377 221 221 71
 71 71 275 275 275 275 287 287 15 15 141 141 141 132 132 132 399 399 399 399
 399 399 399 399 377 377 377 221 221 71 71 71 71 275 275 163 163 163 163 141
 327 132 132 132 132 154 154 399 399 399 399 399 391 391 391 377 377 295 295 71
 71 71 71 275 275 163 163 163 163 163 132 132 132 132 132 154 154 154 180 180
 146 146 391 391 391 391 102 295 295 295 295 352 145 145 145 163 163 163 163 163
 132 132 132 132 132 154 154 154 180 180 146 146 391 391 391 102 102 295 295 295
 295 352 352 145 122 122 163 163 163 163 283 283 283 283 154 154 154 154 180 180
 146 146 391 391 391 102 253 295 295 295 295 352 352 352 122 122 122 163 163 163
 283 283 283 283 283 283 283 154 154 237 237 19 19 19 253 253 253 253 295 295
 352 352 352 352 157 157 157 157 157 157 283 283 283 283 283 283 283 283 237 237
 237 19 19 19 19 253 253 253 253 295 352 352 352 352 157 157 157 157 157 157
 171 283 283 283 283 283 283 283 237 237 237 19 19 19 19 27 253 253 253 253
 176 176 176 176 157 157 157 157 157 171 171 187 283 283 283 283 283 237 237 237
 237 271 19 19 19 271 271 253 282 282 176 176 176 176 70 157 157 157 171 171
 187 187 187 302 283 283 240 240 143 143 143 271 271 271 271 271 271 282 282 282
 176 176 176 70 70 183 183 183 183 171 187 187 302 302 302 302 240 240 143 143
 143 271 271 271 271 100 100 282 282 282 282 176 70 70 70 183 183 183 183 187
 187 187 187 302 302 152 152 240 143 143 143 271 271 271 271 271 271 282 282 282
 282 282 70 70 70 183 183 183 183 127 127 127 127 152 152 152 152 152 38 38
 38 271 271 271 271 271 271 282 282 282 282 282 70 276 276 276 276 298 191 127
 127 127 127 152 152 152 152 152 38 38 38 38 271 271 271 271 169 169 169 282
 309 376 376 276 276 276 276 298 298 127 127 127 127 152 152 152 152 38 38 38
 38 215 215 321 321 321 169 169 169 231 376 376 376 276 276 276 276 298 298 298
 91 91 91 91 124 124 124 38 38 38 38 38 215 321 321 321 321 169 169 231
 231 376 376 389 276 276 276 298 298 298 91 91 91 91 124 124 124 38 38 38
 38 38 321 321 321 321 321 321 231 231 231 376 389 389 389 276 276 298 298 91
 91 91 91 91 124 124 124 38 38 38 194 194 194 321 321 321 321 321 231 231
 231 376 389 389 389 147 86 86 86 86 297 91 91 382 124 124 124 38 38 194
 194 194 194 267 267 321 321 321 354 354 354 376 389 389 147 147 86 86 86 297
 297 297 297 382 382 328 328 228 228 228 194 194 194 267 267 209 209 209 354 354
 354 354 229 229 31 31 31 31 297 297 297 297 297 280 280 280 328 228 228 228
 194 194 194 267 267 209 209 354 354 354 354 354 229 229 229 31 31 31 297 297
 297 297 297 280 280 280 6 6 228 228 228 194 106 106 106 209 209 209 354 354
 354 354 229 229 229 31 31 31 297 297 297 297 89 6 6 6 6 6 6 228
 286 106 106 106 106 106 209 125 354 354 262 262 262 362 362 31 31 31 297 297
 388 177 177 6 6 6 6 6 6 286 286 106 106 106 106 106 106 221 221 262
 262 262 262 336 336 336 336 336 388 388 177 177 177 6 6 6 6 6 6 286
 286 286 142 142 142 142 221 221 221 221 262 262 262 262 336 336 336 336 388 388
 177 177 177 6 6 6 6 6 6 286 286 286 286 142 142 221 221 221 221 221
 262 262 262 262 336 336 336 336 388 388 141 141 141 141 6 6 6 6 399 399
 399 399 399 142 142 221 221 221 221 221 221 262 262 262 336 336 336 379 141 141
 141 141 141 141 141 6 399 399 399 399 399 399 399 399 377 377 221 221 221 221
 221 262 254 275 379 379 379 379 141 141 141 141 141 141 141 6 399 399 399 399
 399 399 399 377 377 377 377 221 221 221 221 71 275 275 275 379 379 379 15 15
 141 141 141 141 141 399 399 399 399 399 399 399 399 399 377 377 377 221 221 221
 71 71 275 275 275 275 163 163 141 141 141 141 141 132 132 132 399 399 399 399
 399 399 399 391 377 377 377 326 326 71 71 71 71 275 275 163 163 163 163 141
 141 132 132 132 132 180 180 180 180 399 399 115 391 391 391 391 295 295 295 71
 71 71 71 275 275 163 163 163 163 163 132 132 132 132 132 180 180 180 180 180
 115 115 391 391 391 391 295 295 295 295 352 352 352 352 145 163 163 163 163 163
 132 132 132 132 132 154 180 180 180 180 115 115 115 391 391 391 295 295 295 295
 352 352 352 352 122 122 163 163 163 163 283 283 283 283 283 283 180 180 180 180
 115 115 115 391 391 391 253 295 295 295 352 352 352 352 122 122 122 163 163 238
 238 283 283 283 283 283 283 180 180 234 234 115 115 19 186 186 253 295 295 295
 352 352 352 352 157 157 157 157 157 238 238 283 283 283 283 283 283 180 234 234
 234 19 19 19 19 253 253 253 253 352 352 352 352 352 157 157 157 157 157 238
 238 283 283 283 283 283 320 320 237 237 237 19 19 19 19 10 253 253 253 253
 176 176 176 352 157 157 157 157 157 238 395 395 283 283 283 320 320 320 237 237
 237 271 271 19 271 271 344 344 344 282 176 176 176 23 157 157 157 157 183 183
 187 395 302 302 302 364 320 320 143 143 143 271 271 271 271 271 344 344 344 282
 176 176 23 23 23 183 183 183 183 183 187 187 302 302 302 364 364 364 143 143
 143 271 271 271 271 271 344 344 344 282 282 176 23 23 23 183 183 183 183 183
 127 127 302 302 302 152 152 152 143 143 143 271 271 40 271 271 344 344 344 282
 282 23 23 23 23 183 183 183 183 127 127 127 127 152 152 152 152 152 38 38
 38 271 40 40 40 271 344 344 344 282 309 309 23 276 276 276 276 183 183 127
 127 127 127 152 152 152 152 152 38 38 38 215 40 40 40 251 251 169 169 309
 309 309 309 276 276 276 276 276 298 127 127 127 127 152 152 152 152 152 38 38
 215 215 215 12 12 251 251 169 231 231 309 309 309 276 276 276 276 276 298 242
 91 91 91 319 319 319 319 38 38 38 38 215 12 12 12 321 321 231 231 231
 231 309 389 389 276 276 276 276 298 242 91 91 91 319 319 319 319 319 38 38
 38 12 12 12 12 321 321 231 231 231 231 231 389 389 389 276 276 86 86 86
 91 91 382 382 319 319 319 319 38 194 194 194 12 12 12 321 321 233 231 231
 231 231 389 389 389 86 86 86 86 86 297 297 382 382 382 382 319 319 194 194
 194 194 194 267 267 267 233 233 233 231 231 231 389 389 389 86 86 86 86 86
 297 297 382 382 382 382 280 280 228 194 194 194 194 267 267 267 233 233 233 354
 354 354 229 229 31 31 31 86 86 297 297 297 382 280 280 280 280 280 228 194
 194 194 194 267 267 267 125 125 354 354 354 354 229 229 31 31 31 31 31 297
 297 297 280 280 280 280 280 280 280 194 194 194 106 106 106 106 125 125 125 354
 354 354 229 229 31 31 31 31 31 297 297 297 280 280 280 280 280 6 6 194
 194 106 106 106 106 106 125 125 125 125 262 262 262 367 31 31 31 31 31 297
 388 177 6 6 6 6 6 6 6 286 286 106 106 106 106 106 125 125 125 125
 262 262 262 367 336 336 336 220 388 388 388 177 177 6 6 6 6 6 6 286
 286 106 106 106 106 106 221 221 221 221 221 262 262 336 336 336 336 336 388 388
 388 177 177 6 6 6 6 6 6 399 286 286 286 142 142 221 221 221 221 221
 221 262 262 367 260 260 260 396 388 388 141 141 141 6 6 6 6 6 399 399
 399 399 399 142 221 221 221 221 221 221 221 262 254 254 260 260 260 396 396 388
 141 141 141 141 6 6 6 399 399 399 399 399 399 399 377 221 221 221 221 221
 221 221 254 254 254 260 260 396 396 141 141 141 141 141 141 6 399 399 399 399
 399 399 399 399 377 377 326 326 221 221 20 20 254 254 254 260 260 396 15 141
 141 141 141 141 141 399 399 399 399 399 399 399 399 399 377 377 326 326 326 20
 20 20 20 254 254 163 163 163 141 141 141 141 141 141 132 180 180 399 399 399
 399 115 115 115 377 377 326 326 326 20 20 20 20 20 275 163 163 163 163 141
 141 132 132 132 132 180 180 180 180 115 115 115 115 115 391 391 322 322 326 20
 20 20 20 20 20 163 163 163 163 163 238 238 132 132 132 180 180 180 180 180
 115 115 115 115 115 322 322 322 295 295 352 352 352 352 352 163 163 163 163 238
 238 238 132 132 132 180 180 180 180 180 115 115 115 115 391 186 295 295 295 295
 352 352 352 352 122 163 163 163 238 238 238 238 283 283 283 180 180 180 180 180
 115 115 115 115 186 186 295 295 295 295 352 352 352 352 157 157 157 157 238 238
 238 238 283 283 283 283 283 180 234 234 234 115 115 115 186 186 186 295 295 352
 352 352 352 352 157 157 157 157 238 238 238 283 283 283 283 151 151 180 234 234
 234 115 115 115 10 186 186 253 253 352 352 352 352 352 157 157 157 157 157 238
 395 395 283 283 320 320 320 320 234 234 234 234 19 19 10 10 10 10 344 352
 176 176 352 352 157 157 157 157 157 238 395 395 395 320 320 320 320 320 320 237
 234 271 271 19 10 10 10 344 344 344 176 23 23 23 23 157 157 157 183 183
 395 395 395 395 364 364 320 320 320 143 143 271 271 271 10 10 344 344 344 344
 176 23 23 23 23 23 183 183 183 183 395 395 395 302 364 364 364 364 143 143
 143 271 271 271 271 344 344 344 344 344 282 23 23 23 23 23 183 183 183 183
 395 395 302 302 364 364 364 364 143 143 181 181 181 40 271 344 344 344 344 344