# vtk DataFile Version 2.0
Data set from IO Version 6.4.197.9a0dee2
ASCII

DATASET RECTILINEAR_GRID
DIMENSIONS 31 31 31
X_COORDINATES 31 float
-2.866667 2.866667 8.599999 14.333332 20.066666 25.799999 31.533331 37.266666 43.000000 48.733334 54.466667 60.200001 65.933327 71.666664 77.399994 83.133331 88.866661 94.599991 100.333328 106.066658 111.799995 
117.533325 123.266663 129.000000 134.733322 140.466660 146.199997 151.933319 157.666656 163.399994 169.133331 
Y_COORDINATES 31 float
-2.866667 2.866667 8.599999 14.333332 20.066666 25.799999 31.533331 37.266666 43.000000 48.733334 54.466667 60.200001 65.933327 71.666664 77.399994 83.133331 88.866661 94.599991 100.333328 106.066658 111.799995 
117.533325 123.266663 129.000000 134.733322 140.466660 146.199997 151.933319 157.666656 163.399994 169.133331 
Z_COORDINATES 31 float
-2.866667 2.866667 8.599999 14.333332 20.066666 25.799999 31.533331 37.266666 43.000000 48.733334 54.466667 60.200001 65.933327 71.666664 77.399994 83.133331 88.866661 94.599991 100.333328 106.066658 111.799995 
117.533325 123.266663 129.000000 134.733322 140.466660 146.199997 151.933319 157.666656 163.399994 169.133331 
CELL_DATA 27000
SCALARS FeatureIds int 1
LOOKUP_TABLE default
 142 142 142 142 142 261 396 396 377 377 53 53 53 384 384 384 4 4 4 4
 4 65 299 299 299 299 299 233 233 233 142 142 142 142 142 261 261 261 53 53
 53 53 53 76 76 384 4 4 4 4 65 65 65 299 299 299 233 233 233 233
 142 142 142 142 142 261 261 261 53 53 53 53 76 76 76 309 4 4 4 4
 65 65 65 65 299 299 233 233 233 233 179 179 142 142 142 261 261 369 53 53
 53 53 76 76 76 309 309 4 4 65 65 65 65 65 157 157 157 157 233 233
 179 179 179 179 142 366 369 369 369 369 369 369 76 76 76 309 309 287 287 65
 65 65 65 65 157 157 157 157 157 341 179 179 179 179 179 366 369 369 369 369
 369 369 54 54 54 54 287 287 287 287 65 65 65 157 157 157 157 157 157 341
 179 179 179 179 179 366 369 369 369 369 369 54 54 54 54 54 287 287 287 287
 287 65 65 157 157 157 157 157 157 341 179 179 179 179 179 366 369 369 369 196
 196 54 54 54 54 54 54 287 287 287 287 287 304 304 304 157 157 230 230 230
 179 179 179 179 164 164 152 152 196 196 196 196 54 54 54 54 54 287 287 287
 70 70 304 304 304 304 304 230 230 230 181 181 181 164 164 164 152 152 152 196
 196 196 196 54 54 54 54 70 70 70 70 70 304 304 304 304 304 230 230 230
 110 110 110 164 164 164 152 152 152 152 196 196 196 196 54 329 329 70 70 70
 70 237 237 304 304 304 304 230 230 230 110 110 110 110 297 297 297 297 152 152
 196 196 196 394 394 329 232 99 99 99 237 237 237 304 304 304 304 230 230 213
 213 110 110 110 297 297 297 297 186 186 196 196 394 394 394 394 280 280 237 237
 237 237 237 237 237 304 304 213 213 213 213 213 213 131 131 131 297 297 297 297
 186 394 394 394 394 394 280 280 237 237 237 237 237 237 237 304 162 162 213 213
 213 213 213 131 131 131 131 297 297 186 186 394 394 394 394 394 280 280 163 163
 237 237 237 237 237 162 162 162 162 213 213 213 131 131 131 131 131 131 131 190
 190 302 302 302 302 302 163 163 163 163 163 163 237 237 237 162 162 162 162 162
 213 7 131 131 131 131 131 131 131 190 190 349 349 302 302 302 163 163 163 163
 163 163 163 163 313 313 162 162 162 162 7 7 131 131 131 131 131 131 190 190
 190 349 349 349 349 349 163 163 163 163 163 163 163 313 313 313 313 162 162 162
 7 7 7 7 131 131 131 131 190 190 349 349 349 349 349 349 349 163 163 163
 163 150 163 313 313 313 313 313 313 162 178 399 7 7 7 131 85 85 85 190
 190 349 349 349 349 349 349 163 163 163 150 150 150 150 313 313 313 313 41 178
 178 399 399 399 7 85 85 85 85 85 17 17 126 126 126 126 126 144 144 144
 150 150 150 293 293 293 293 148 41 178 399 399 399 399 399 240 85 85 240 240
 17 17 17 126 126 126 340 340 144 144 356 150 356 293 293 293 293 148 41 178
 399 399 399 399 399 240 240 240 240 240 17 17 17 126 126 126 340 340 340 144
 356 356 356 293 293 293 293 148 148 148 399 399 399 399 49 49 240 240 240 17
 17 17 17 17 17 340 340 340 340 22 22 22 22 64 64 64 64 148 148 148
 399 399 399 49 49 49 49 240 61 61 17 17 17 17 384 384 384 384 340 22
 22 22 22 64 64 64 64 64 226 226 226 49 49 49 49 49 49 49 61 61
 61 17 17 384 384 384 384 384 384 22 22 22 22 64 64 64 64 64 226 226
 226 49 49 49 49 264 264 264 61 61 61 61 384 384 384 384 384 384 384 22
 22 22 22 64 64 64 64 64 226 226 388 49 49 49 264 264 264 264 61 61
 61 370 384 384 384 384 384 384 384 384 22 22 22 64 64 64 64 64 388 388
 388 388 49 49 264 264 264 264 377 377 377 377 384 384 384 384 384 384 384 381
 381 22 22 299 299 299 299 299 388 388 388 142 142 142 396 396 396 396 377 377
 377 377 384 384 384 384 384 384 384 381 381 381 299 299 299 299 299 299 388 388
 142 142 142 142 142 396 396 396 377 377 377 53 53 384 384 384 4 4 4 381
 381 381 299 299 299 299 299 299 233 155 142 142 142 142 142 396 396 396 53 53
 53 53 53 384 384 384 4 4 4 381 381 65 65 299 299 299 299 233 233 155
 142 142 142 142 142 142 261 53 53 53 53 53 53 76 76 309 4 4 4 4
 65 65 65 65 299 299 233 233 155 155 155 142 142 142 142 142 261 53 53 53
 53 53 53 76 76 309 309 4 4 65 65 65 65 65 157 157 157 157 155 155
 179 179 179 179 366 366 366 369 369 369 53 53 76 121 121 121 121 287 287 65
 65 65 65 65 157 157 157 157 157 341 179 179 179 366 366 366 366 369 369 369
 369 369 54 121 121 121 121 287 287 287 65 65 65 157 157 157 157 157 341 341
 179 179 179 179 366 366 366 369 369 369 369 54 54 54 121 121 287 287 287 287
 132 132 132 157 157 157 157 157 341 341 181 181 181 179 366 366 366 369 369 196
 196 196 54 54 54 54 54 287 287 287 132 132 132 157 157 157 157 230 230 230
 181 181 181 164 164 164 164 186 186 196 196 196 196 54 54 54 54 287 287 287
 132 132 132 304 304 304 230 230 230 230 181 181 181 164 164 164 164 186 186 196
 196 196 196 196 54 54 47 70 70 70 70 70 304 304 304 304 230 230 230 230
 213 181 181 164 164 164 186 186 186 186 196 196 196 196 232 232 232 70 70 70
 70 237 237 304 304 304 230 230 230 230 213 213 213 164 164 186 186 186 186 186
 186 196 196 394 394 232 232 232 99 237 237 237 237 304 304 304 304 230 230 213
 213 213 213 213 326 326 186 186 186 186 186 186 394 394 394 232 232 280 237 237
 237 237 237 237 304 304 304 213 213 213 213 213 213 131 131 131 297 186 186 186
 186 186 394 394 394 232 280 163 163 163 237 237 237 237 237 162 162 162 213 213
 213 213 213 131 131 131 131 131 186 186 186 394 394 394 394 394 163 163 163 163
 163 163 237 237 237 162 162 162 162 213 213 213 213 131 131 131 131 131 190 190
 190 190 394 394 394 394 163 163 163 163 163 163 163 163 237 162 162 162 162 162
 213 7 7 131 131 131 131 131 190 190 190 190 349 302 394 394 163 163 163 163
 163 163 163 163 313 313 162 162 162 162 7 7 7 7 131 131 131 190 190 190
 190 190 349 272 272 272 163 163 163 163 163 163 163 163 313 313 313 162 162 162
 7 7 7 7 7 131 85 85 190 190 190 190 272 272 272 272 272 163 163 163
 163 150 163 163 313 313 313 313 162 162 7 7 7 7 7 85 85 85 85 190
 190 190 272 272 272 272 272 144 144 144 150 150 150 75 75 313 313 41 41 178
 178 7 7 7 7 85 85 85 85 190 17 17 17 17 17 272 272 144 144 144
 356 150 150 75 293 293 293 41 41 178 178 399 399 399 7 85 85 85 85 85
 17 17 17 17 17 17 340 340 144 144 356 356 356 356 293 293 293 41 41 178
 399 399 399 399 399 85 85 85 85 85 17 17 17 17 17 17 340 340 340 144
 356 356 356 356 293 293 293 41 41 178 399 399 399 49 49 49 49 240 85 17
 17 17 17 17 17 340 340 340 340 22 22 22 22 22 64 64 64 148 148 399
 226 399 49 49 49 49 49 49 61 61 17 17 17 17 384 384 340 340 340 22
 22 22 22 22 64 64 64 226 226 226 226 49 49 49 49 49 49 61 61 61
 61 370 370 384 384 384 384 384 384 22 22 22 22 22 64 64 64 226 226 226
 226 49 49 49 49 49 49 61 61 61 61 370 370 384 384 384 384 384 384 22
 22 22 22 22 64 64 64 226 226 226 226 49 49 49 49 49 264 264 61 61
 61 370 370 384 384 384 384 384 384 22 22 22 22 22 299 299 299 226 226 226
 388 49 49 49 396 396 396 396 377 377 377 370 370 384 384 384 384 384 384 381
 381 22 22 299 299 299 299 299 388 388 388 142 142 142 396 396 396 396 377 377
 377 370 370 384 384 384 384 384 381 381 381 381 299 299 299 299 299 299 299 388
 155 142 142 142 396 396 396 396 377 377 377 53 24 24 384 384 4 4 381 381
 381 381 221 221 299 299 299 155 155 155 155 142 142 142 142 396 396 396 53 53
 53 53 53 24 24 4 4 4 4 381 381 221 221 221 221 299 299 155 155 155
 155 142 142 142 142 142 396 205 53 53 53 53 53 24 24 4 4 4 4 4
 36 65 221 221 221 299 155 155 155 155 155 142 142 142 142 366 205 205 205 53
 53 53 53 76 76 121 4 4 4 36 65 65 65 65 157 157 157 155 155 155
 341 341 142 366 366 366 366 366 205 53 53 53 121 121 121 121 121 287 287 36
 65 65 65 157 157 157 157 157 341 341 341 341 366 366 366 366 366 366 369 369
 369 121 121 121 121 121 121 287 287 132 132 132 132 157 157 157 157 157 341 341
 341 341 366 366 366 366 366 366 369 369 369 54 121 121 121 121 121 287 287 132
 132 132 132 157 157 157 157 157 341 341 181 181 181 164 164 164 366 186 186 196
 196 196 196 121 121 121 47 287 287 132 132 132 132 132 157 157 157 230 230 341
 181 181 181 164 164 164 164 186 186 196 196 196 196 196 47 47 47 47 287 132
 132 132 132 132 304 304 230 230 230 230 181 181 181 164 164 164 164 186 186 186
 196 196 196 196 47 47 47 47 70 132 132 132 132 304 304 304 230 230 230 230
 181 181 181 164 164 164 164 186 186 186 186 196 196 196 232 232 232 232 70 70
 70 237 237 304 304 304 230 230 230 230 181 181 181 164 164 164 186 186 186 186
 186 186 196 394 232 232 232 232 232 237 237 237 237 304 304 304 304 230 230 213
 213 213 328 326 326 326 186 186 186 186 186 186 394 394 394 232 232 232 163 237
 237 237 237 237 304 304 304 213 213 213 213 213 213 326 326 326 326 186 186 186
 186 186 394 394 394 232 232 163 163 163 163 237 237 237 237 188 162 162 213 213
 213 213 213 326 326 326 326 186 186 186 186 186 394 394 394 394 163 163 163 163
 163 163 163 237 188 188 162 162 162 213 213 213 7 131 131 131 131 190 190 190
 190 190 394 394 394 394 163 163 163 163 163 163 163 163 188 188 162 162 162 162
 213 7 7 7 131 131 131 190 190 190 190 190 190 394 272 272 163 163 163 163
 163 163 163 163 188 188 162 162 162 162 6 7 7 7 7 7 131 190 190 190
 190 190 272 272 272 272 272 163 163 163 163 163 163 163 188 188 162 162 162 162
 6 7 7 7 7 7 85 190 190 190 190 190 272 272 272 272 272 163 163 163
 163 163 75 75 75 75 313 162 162 6 6 7 7 7 7 7 85 85 85 190
 190 190 272 272 272 272 272 144 144 144 150 150 75 75 75 75 75 41 6 6
 6 6 7 7 7 85 85 85 85 190 17 17 17 272 272 272 272 144 144 144
 356 356 356 75 75 75 41 41 41 178 178 6 6 7 7 85 85 85 85 85
 17 17 17 17 17 272 340 340 144 144 356 356 356 356 75 293 41 41 41 178
 399 399 399 399 49 85 85 85 85 85 17 17 17 17 17 340 340 340 340 144
 356 356 356 356 57 57 57 41 41 178 399 399 399 49 49 49 49 85 85 17
 17 17 17 17 17 340 340 340 340 22 22 22 22 22 57 57 57 57 226 226
 226 49 49 49 49 49 49 49 61 61 17 17 17 17 384 384 340 340 340 22
 22 22 22 22 57 57 57 226 226 226 226 49 49 49 49 49 49 49 61 61
 61 370 370 384 384 384 384 340 22 22 22 22 22 22 22 57 57 226 226 226
 226 49 49 49 49 49 49 61 61 61 61 370 370 370 384 384 384 384 22 22
 22 22 22 22 22 64 64 226 226 226 226 49 49 49 49 49 396 396 61 61
 370 370 370 370 384 384 384 384 384 22 22 22 22 22 299 299 299 299 226 226
 388 49 49 396 396 396 396 396 377 377 370 370 370 370 384 384 384 384 381 381
 381 22 22 299 299 299 299 299 55 55 142 142 142 396 396 396 396 396 377 377
 377 370 370 370 384 384 384 384 381 381 381 381 22 299 299 299 299 299 299 55
 155 290 142 142 396 396 396 396 377 175 377 24 24 24 24 201 201 201 381 381
 381 381 221 221 221 299 299 155 155 155 155 290 290 142 142 396 396 396 175 175
 53 53 24 24 24 201 201 201 381 381 381 381 221 221 221 299 155 155 155 155
 155 155 290 142 142 396 205 205 205 53 53 53 24 24 24 201 201 201 36 36
 36 36 221 221 221 221 155 155 155 155 155 155 290 142 142 366 205 205 205 53
 53 53 24 24 24 201 201 201 36 36 36 65 65 221 157 157 155 155 155 155
 341 341 341 366 366 366 366 205 205 205 53 53 121 121 121 121 201 201 36 36
 36 65 65 157 157 157 157 155 341 341 341 341 341 366 366 274 366 366 205 205
 374 374 121 121 121 121 121 201 132 132 132 132 132 157 157 157 157 341 341 341
 341 341 366 366 366 366 366 366 369 369 374 374 374 121 121 121 47 47 132 132
 132 132 132 132 157 157 157 341 341 341 181 181 181 181 164 164 164 186 186 186
 128 128 374 374 374 47 47 47 202 132 132 132 132 132 157 157 157 341 341 341
 181 181 181 181 164 164 164 186 186 186 128 128 128 374 47 47 47 47 202 132
 132 132 132 132 304 304 230 230 230 181 181 181 181 181 164 164 164 186 186 186
 186 128 128 47 47 47 47 47 202 202 132 132 132 132 304 304 230 230 230 181
 181 181 181 181 164 164 164 186 186 186 186 186 196 47 232 232 232 47 202 202
 202 132 132 304 304 304 230 230 230 181 328 328 328 328 164 164 92 186 186 186
 186 186 186 232 232 232 232 232 232 202 202 237 237 94 304 304 304 230 230 213
 328 328 328 328 326 326 326 186 186 186 186 186 186 394 232 232 232 232 232 237
 237 237 237 237 188 188 188 213 213 213 328 328 328 326 326 326 326 186 186 186
 186 186 394 394 394 232 232 232 163 163 163 163 237 188 188 188 188 162 213 213
 213 245 245 326 326 326 326 186 186 186 186 186 394 394 394 232 232 163 163 163
 163 163 163 188 188 188 188 162 162 213 245 245 245 245 326 326 326 190 190 190
 190 190 190 394 394 232 163 163 163 163 163 163 163 188 188 188 188 162 162 162
 6 6 7 7 203 203 190 190 190 190 190 190 190 272 272 272 291 163 163 163
 163 163 163 188 188 188 188 188 162 162 6 6 7 7 7 203 203 190 190 190
 190 190 272 272 272 272 272 163 163 163 163 163 163 75 188 188 188 188 162 6
 6 6 7 7 7 7 48 190 190 190 190 190 272 272 272 272 51 51 163 163
 163 75 75 75 75 75 188 87 6 6 6 6 7 7 7 7 48 48 190 190
 190 60 272 272 272 272 51 51 144 144 356 356 75 75 75 75 87 87 6 6
 6 6 6 7 7 85 85 85 85 190 60 17 17 272 272 51 51 51 144 144
 356 356 356 75 75 75 87 87 87 6 6 6 6 6 7 85 85 85 85 190
 17 17 17 17 17 51 51 51 144 144 356 356 356 356 75 87 87 87 87 6
 6 6 6 6 117 117 85 85 85 17 17 17 17 17 1 51 340 340 340 144
 356 356 356 356 57 57 57 87 87 87 399 399 399 49 117 117 117 117 85 89
 89 89 17 1 1 340 340 340 340 22 22 22 22 57 57 57 57 57 87 226
 226 49 49 49 117 117 117 117 61 89 89 89 89 1 1 340 340 340 340 22
 22 22 22 22 57 57 57 57 57 226 226 49 49 49 49 49 32 32 61 89
 89 370 370 370 384 384 340 340 22 22 22 22 22 22 22 57 57 57 226 226
 226 49 49 49 49 32 32 32 61 61 370 370 370 370 370 384 384 223 22 22
 22 22 22 22 22 57 57 55 55 226 226 49 49 49 32 32 32 32 61 61
 370 370 370 370 370 384 384 223 223 22 22 22 22 22 299 299 299 55 55 55
 55 49 49 396 32 32 396 396 377 377 370 370 370 370 370 384 384 223 381 381
 381 22 22 22 299 299 299 55 55 55 290 290 142 396 396 396 396 396 377 377
 370 370 370 370 370 384 384 381 381 381 381 381 22 299 299 299 299 55 55 55
 290 290 290 290 396 396 396 175 175 175 175 24 24 24 24 201 201 201 381 381
 381 381 221 221 354 354 354 55 155 155 155 290 290 290 142 396 396 175 175 175
 175 24 24 24 24 201 201 201 201 36 381 221 221 221 354 354 354 155 155 155
 155 290 290 290 142 396 205 205 175 175 175 24 24 24 24 201 201 201 36 36
 36 36 221 221 354 354 155 155 155 155 155 155 290 290 366 366 205 205 205 175
 53 24 24 24 24 201 201 201 36 36 36 383 221 221 354 354 155 155 155 155
 341 341 290 366 366 366 366 205 205 205 335 374 24 121 121 201 201 201 36 36
 36 383 383 383 157 157 361 361 155 341 341 341 341 366 366 366 366 366 205 205
 374 374 374 374 374 121 201 201 36 36 383 383 383 383 157 157 361 361 341 341
 341 341 325 366 366 366 366 366 69 69 374 374 374 374 374 47 47 47 132 132
 132 132 132 132 157 157 361 361 341 341 181 181 181 181 164 164 164 69 69 69
 128 128 374 374 374 47 47 47 202 132 132 132 132 132 157 157 361 361 341 341
 181 181 181 181 164 164 164 69 69 186 128 128 128 374 47 47 47 47 202 202
 132 132 132 97 97 97 107 107 107 181 181 181 181 181 164 164 164 69 69 186
 128 128 128 47 47 47 47 47 202 202 202 202 97 97 97 97 107 107 107 181
 328 328 328 328 164 164 92 92 186 186 186 128 128 47 47 47 47 47 202 202
 202 94 97 97 97 97 107 107 107 328 328 328 328 328 324 92 92 92 186 186
 186 186 186 47 232 232 232 47 202 202 202 94 94 94 97 188 107 107 107 328
 328 328 328 328 324 324 92 92 186 186 186 186 186 394 232 232 232 232 202 202
 202 94 94 94 188 188 188 188 328 328 328 328 328 328 324 326 324 92 186 186
 186 186 186 394 232 232 232 232 285 285 285 94 94 188 188 188 188 188 188 213
 245 245 245 245 324 324 324 324 186 186 186 359 359 359 359 232 285 285 285 285
 285 163 188 188 188 188 188 188 188 245 245 245 245 245 203 203 203 190 190 190
 190 359 359 359 362 362 291 291 285 285 285 163 188 188 188 188 188 188 188 245
 245 245 245 245 203 203 203 190 190 190 190 190 362 362 362 362 291 291 291 291
 163 163 188 188 188 188 188 188 188 245 6 6 6 6 203 203 203 190 190 52
 190 190 362 362 362 362 291 291 291 291 291 163 188 188 188 188 188 188 188 6
 6 6 6 6 203 203 48 48 190 190 190 60 60 272 272 272 51 291 291 291
 291 75 195 195 75 188 188 188 6 6 6 6 6 6 6 48 48 48 190 190
 60 60 60 272 272 272 51 51 51 144 356 356 195 195 75 75 87 87 6 6
 6 6 6 6 6 48 48 48 108 60 60 60 60 272 272 51 51 51 51 144
 356 356 356 195 75 87 87 87 87 6 6 6 6 6 6 108 108 108 108 234
 60 60 60 1 51 51 51 51 51 144 356 356 356 356 57 87 87 87 87 87
 6 6 6 6 117 117 108 108 108 234 89 89 1 1 1 51 51 51 51 51
 356 356 356 57 57 57 57 87 87 87 6 6 6 117 117 117 117 108 89 89
 89 89 1 1 1 51 340 340 340 22 22 22 22 57 57 57 57 57 87 87
 226 90 90 90 117 117 117 117 89 89 89 89 89 1 1 340 340 340 340 22
 22 22 22 22 57 57 57 57 57 57 226 90 90 90 90 32 32 32 89 89
 89 89 89 370 1 340 340 223 22 22 22 22 22 22 57 57 57 57 57 226
 226 90 90 90 32 32 32 32 32 89 370 370 370 370 370 370 223 223 223 22
 22 22 22 22 22 57 57 55 55 55 55 185 49 32 32 32 32 32 32 370
 370 370 370 370 370 370 223 223 223 22 22 22 22 22 127 127 127 55 55 55
 55 55 32 32 32 32 32 32 125 125 370 370 370 370 370 370 223 223 223 381
 381 22 22 22 127 127 127 55 55 55 290 290 290 32 32 32 32 32 175 175
 125 370 370 370 370 370 223 223 381 381 381 381 22 127 127 127 127 55 55 55
 290 290 290 290 32 32 288 175 175 175 175 24 24 24 24 201 201 201 381 381
 381 381 354 354 354 354 354 55 55 155 290 290 290 290 32 288 288 175 175 175
 175 24 24 24 24 201 201 201 201 36 36 36 354 354 354 354 354 155 155 155
 290 290 290 290 290 288 288 288 175 175 175 24 24 24 24 201 201 201 36 36
 36 36 221 354 354 354 354 155 155 155 155 290 290 290 380 380 205 205 205 175
 175 24 24 24 24 201 201 201 36 36 36 383 383 354 354 354 354 155 155 155
 155 290 290 380 380 380 380 205 205 175 335 335 335 24 24 201 201 201 36 36
 36 383 383 383 354 354 361 361 361 155 341 341 325 366 380 380 380 366 205 335
 335 335 374 374 374 201 201 201 36 36 383 383 383 383 383 361 361 361 361 341
 341 325 325 325 380 380 380 380 69 335 335 374 374 374 374 47 47 47 202 132
 383 383 383 383 383 361 361 361 361 341 174 181 325 325 380 69 69 69 69 69
 128 374 374 374 374 47 47 47 202 202 132 132 132 132 97 37 361 361 361 341
 174 174 174 325 164 69 69 69 69 69 128 128 128 374 47 47 47 47 202 202
 202 202 97 97 97 97 107 107 107 107 328 328 328 328 164 69 69 69 69 69
 128 128 128 47 47 47 47 47 202 202 202 202 97 97 97 97 107 107 107 181
 328 328 328 328 324 92 92 92 69 69 128 128 128 47 47 47 47 47 202 202
 202 202 97 97 97 97 107 107 107 328 328 328 328 328 324 324 92 92 92 186
 186 128 128 47 47 47 47 47 202 202 202 94 94 94 97 188 107 107 107 328
 328 328 328 324 324 324 92 92 92 186 186 186 186 47 47 47 47 47 202 202
 202 94 94 94 188 188 188 188 328 328 245 245 245 324 324 324 324 92 92 186
 359 359 359 359 47 47 47 285 285 285 285 94 94 188 188 188 188 188 188 245
 245 245 245 245 324 324 324 324 324 359 359 359 359 359 359 276 285 285 285 285
 285 285 188 188 188 188 188 188 188 245 245 245 245 245 324 324 324 324 190 190
 359 359 359 359 362 276 291 291 285 285 285 285 188 188 188 188 188 188 188 245
 245 245 245 245 203 203 203 190 190 190 190 359 359 362 362 362 291 291 291 291
 285 285 188 188 188 188 188 188 188 245 6 6 6 6 203 203 203 190 190 190
 190 60 362 362 362 362 291 291 291 291 291 134 195 195 188 188 188 188 188 6
 6 6 6 6 203 203 203 190 190 190 60 60 60 362 362 362 291 291 291 291
 291 134 195 195 195 188 188 188 6 6 6 6 6 6 6 203 48 48 190 60
 60 60 60 60 362 51 51 51 51 51 134 134 195 195 195 195 87 87 6 6
 6 6 6 6 6 108 108 108 108 234 60 60 60 60 51 51 51 51 51 51
 356 356 195 195 195 87 87 87 87 6 6 6 6 6 6 108 108 108 108 234
 234 60 60 1 51 51 51 51 51 51 356 356 356 195 57 87 87 87 87 87
 6 6 6 6 224 224 108 108 108 234 234 234 1 1 1 51 51 51 51 51
 356 356 356 57 57 57 57 87 87 87 160 160 160 224 224 224 224 108 234 234
 89 89 1 1 1 51 51 51 51 51 22 100 22 57 57 57 57 57 87 87
 160 160 90 90 90 117 224 224 234 89 89 89 1 1 1 1 51 340 51 22
 22 22 22 57 57 57 57 57 57 87 160 90 90 90 90 32 32 32 89 89
 89 89 89 1 1 1 223 223 223 22 22 22 22 22 57 57 57 57 57 226
 185 185 90 90 32 32 32 32 32 89 89 89 43 43 43 43 223 223 223 22
 22 22 22 22 22 57 57 57 55 55 185 185 185 32 32 32 32 32 32 125
 125 125 43 43 43 43 223 223 223 223 22 22 22 22 127 127 127 55 55 55
 185 185 185 32 32 32 32 32 125 125 125 125 43 43 43 43 223 223 223 381
 381 22 22 127 127 127 127 55 55 55 290 290 290 32 32 32 32 32 175 175
 125 125 24 24 24 43 223 223 223 381 381 381 354 354 127 127 127 55 55 55
 290 290 290 290 32 288 288 288 175 175 175 24 24 24 24 201 201 201 201 381
 381 354 354 354 354 354 354 55 55 290 290 290 290 290 288 288 288 288 175 175
 175 24 24 24 24 201 201 201 201 36 36 354 354 354 354 354 354 354 155 290
 290 290 290 290 290 288 288 288 175 175 175 24 24 24 24 201 201 201 36 36
 36 36 354 354 354 354 354 354 155 308 308 290 290 290 386 386 288 288 175 175
 335 335 24 24 24 201 201 303 36 36 36 383 383 354 354 354 354 354 308 308
 308 308 325 386 386 386 386 386 386 335 335 335 335 231 231 201 201 303 36 36
 36 383 383 383 354 354 361 361 308 308 325 325 325 386 386 386 386 386 386 335
 335 335 335 231 231 201 201 303 36 36 383 383 383 383 37 37 361 361 361 308
 325 325 325 325 386 386 386 386 386 335 335 335 374 374 374 47 47 47 202 36
 383 383 383 383 37 37 361 361 361 308 174 325 325 325 386 386 69 69 69 69
 128 374 374 374 47 47 47 47 202 202 202 132 132 37 37 37 37 37 361 308
 174 174 174 325 386 69 69 69 69 69 128 128 128 374 47 47 47 47 202 202
 202 202 97 97 97 37 107 107 107 107 174 174 174 174 69 69 69 69 69 69
 128 128 128 47 47 47 47 47 202 202 202 202 97 97 97 37 107 107 107 174
 328 328 328 328 324 324 69 69 69 69 128 128 128 47 47 47 47 47 202 202
 202 202 97 97 97 107 107 107 107 328 328 328 328 324 324 324 92 92 92 92
 128 128 128 47 47 47 47 47 202 202 202 94 94 21 21 21 107 107 107 328
 328 328 328 324 324 324 324 92 92 92 359 359 359 47 47 47 47 47 202 202
 202 94 94 21 21 188 188 188 328 328 245 245 245 324 324 324 324 324 324 359
 359 359 359 359 47 276 47 285 285 285 285 94 21 188 188 188 188 188 245 245
 245 245 245 245 324 324 324 324 324 359 359 359 359 359 276 276 276 291 285 285
 285 285 188 188 188 188 188 188 245 245 245 245 245 245 324 324 324 324 324 359
 359 359 359 359 276 276 276 291 285 285 285 285 188 188 188 188 188 188 245 245
 245 245 245 245 203 203 203 324 154 154 359 359 359 362 362 362 291 291 291 291
 285 285 188 188 188 188 188 188 245 245 245 245 245 229 203 203 203 154 154 154
 154 60 362 362 362 362 291 291 291 291 291 134 134 188 188 188 188 188 245 245
 6 6 6 6 203 203 203 154 154 154 60 60 60 362 362 362 291 291 291 291
 134 134 134 195 195 188 188 188 6 6 6 6 6 6 6 203 108 108 108 234
 60 60 60 60 362 51 51 51 51 51 134 134 134 195 195 195 87 87 6 6
 6 6 6 6 6 108 108 108 108 234 234 60 60 60 51 51 51 51 51 51
 134 134 134 195 195 87 87 87 87 6 6 6 6 6 224 108 108 108 108 234
 234 234 60 1 51 51 51 51 51 51 100 134 134 195 57 57 87 87 87 87
 160 160 160 224 224 224 108 108 108 234 234 234 1 1 1 51 51 51 51 51
 100 100 100 57 57 57 57 87 87 87 160 160 160 224 224 224 224 108 108 234
 234 234 1 1 1 51 51 51 51 100 100 100 100 57 57 57 57 57 87 160
 160 160 160 90 224 224 224 224 108 234 234 89 1 1 1 1 51 51 51 100
 100 100 100 57 57 57 57 57 57 160 160 160 90 90 224 32 32 32 89 89
 89 89 89 1 1 1 223 223 223 22 22 22 22 22 57 57 57 57 57 165
 185 185 185 90 32 32 32 32 32 125 125 125 43 43 43 43 223 223 223 363
 363 363 363 363 57 57 158 158 165 165 185 185 185 32 32 32 32 32 125 125
 125 125 43 43 43 43 223 223 223 363 363 363 363 363 127 127 127 158 165 165
 185 185 185 32 32 32 32 32 125 125 125 125 43 43 43 43 223 223 223 363
 363 363 363 363 127 127 127 55 55 165 185 185 185 32 32 32 32 32 125 125
 125 125 24 24 24 24 223 223 223 381 363 363 363 354 354 127 127 55 55 55
 290 290 290 290 288 288 288 288 288 227 227 253 253 253 253 201 201 201 86 86
 86 354 354 354 354 354 354 55 55 308 308 290 290 290 288 288 288 288 288 227
 227 253 253 253 253 201 201 201 201 36 36 354 354 354 354 354 354 354 308 308
 308 308 290 290 288 288 288 288 288 227 227 253 253 253 253 201 201 303 303 36
 36 36 354 354 354 354 354 308 308 308 308 308 290 386 386 386 288 288 288 227
 335 335 335 253 253 201 303 303 303 36 36 383 354 354 354 354 354 308 308 308
 308 308 325 386 386 386 386 386 386 335 335 335 335 231 231 201 303 303 303 36
 36 383 383 383 354 102 102 102 308 308 325 325 325 386 386 386 386 386 386 335
 335 335 335 231 231 277 277 214 214 214 383 383 383 37 37 37 37 102 308 308
 325 325 325 325 386 386 386 386 386 335 335 335 335 231 231 277 277 214 214 214
 214 383 383 37 37 37 37 37 361 308 325 325 325 325 386 386 69 69 69 69
 335 335 374 374 47 47 47 214 214 214 214 214 37 37 37 37 37 37 37 308
 174 174 325 325 386 69 69 69 69 69 128 128 128 374 47 47 47 47 214 202
 202 202 97 37 37 37 37 37 37 174 174 174 174 325 69 69 69 69 69 69
 128 128 128 47 47 47 47 47 202 202 202 202 97 37 37 37 37 37 107 174
 174 174 174 324 324 324 69 69 69 69 128 128 128 47 47 47 47 47 202 202
 202 202 21 21 21 21 19 19 19 328 328 328 328 324 324 324 324 92 92 92
 128 128 128 47 47 47 47 47 202 202 202 21 21 21 21 21 19 19 19 328
 245 245 245 324 324 324 324 324 324 92 128 359 359 252 47 47 47 47 202 285
 21 21 21 21 21 21 19 19 19 245 245 245 245 324 324 324 324 324 324 324
 359 359 359 359 276 276 276 291 285 285 285 21 21 21 21 188 188 188 245 245
 245 245 245 245 324 324 324 324 324 359 359 359 359 359 276 276 276 291 285 285
 285 285 21 21 188 188 188 188 245 245 245 245 245 245 324 324 324 324 154 154
 359 359 359 359 276 276 276 291 291 285 285 285 188 188 188 188 188 188 245 245
 245 245 245 245 245 324 324 154 154 154 154 154 359 362 362 276 276 291 291 291
 291 291 188 188 188 188 188 188 245 245 245 245 245 229 229 203 203 154 154 154
 154 154 362 362 362 362 291 291 291 291 291 134 134 188 188 188 188 188 245 245
 6 6 6 229 229 203 203 154 154 154 154 154 60 362 362 362 291 291 291 291
 134 134 134 134 195 351 351 351 351 6 6 6 6 6 6 108 108 108 154 154
 154 60 60 262 262 51 51 51 51 134 134 134 134 134 195 351 351 351 351 6
 6 6 6 6 6 108 108 108 108 234 234 234 262 262 262 51 51 51 51 51
 134 134 134 134 195 351 351 351 351 6 6 6 6 6 224 108 108 108 108 234
 234 234 262 262 262 51 51 51 51 51 100 134 134 134 57 57 87 87 87 87
 160 160 160 224 224 224 108 108 108 234 234 234 234 262 262 51 51 51 51 100
 100 100 100 57 57 57 57 87 87 160 160 160 160 224 224 224 224 108 108 234
 234 234 234 1 1 51 51 51 51 100 100 100 100 100 57 57 57 57 87 160
 160 160 160 224 224 224 224 224 108 234 234 234 234 1 1 51 51 51 51 100
 100 100 100 100 57 57 57 57 57 160 160 160 90 224 224 224 224 224 228 234
 234 234 234 1 1 51 223 223 223 100 100 100 100 100 211 211 211 57 165 165
 165 185 185 176 176 32 32 32 228 228 125 125 43 43 43 43 223 223 223 363
 363 363 363 363 211 211 158 158 165 165 165 185 185 176 176 32 32 176 228 125
 125 125 43 43 43 43 223 223 223 363 363 363 363 363 127 127 158 158 165 165
 185 185 185 32 32 32 32 176 228 125 125 125 43 43 43 223 223 223 223 363
 363 363 363 363 127 127 158 158 158 165 185 185 185 185 32 32 288 288 228 125
 125 125 253 253 253 223 223 223 86 363 363 363 363 354 354 354 354 55 55 55
 308 308 290 180 288 288 288 288 227 227 227 253 253 253 253 253 86 86 86 86
 86 301 301 301 301 301 301 301 308 308 308 308 290 290 288 288 288 288 227 227
 227 253 253 253 253 253 86 86 86 86 86 301 301 301 301 301 301 308 308 308
 308 308 308 308 288 288 288 288 227 227 227 253 253 253 253 253 86 86 86 86
 86 301 301 301 301 301 301 308 308 308 308 308 308 386 386 386 386 288 227 227
 335 335 253 253 253 253 303 303 303 36 36 301 301 301 301 301 102 308 308 308
 308 308 308 386 386 386 386 386 254 254 335 335 335 231 277 277 277 303 303 36
 36 383 147 37 301 102 102 102 308 308 308 325 325 386 386 386 386 386 254 254
 335 335 335 231 277 277 277 214 214 214 214 383 37 37 37 37 102 102 102 308
 325 325 325 325 386 386 386 386 254 254 335 335 335 231 277 277 277 214 214 214
 214 214 37 37 37 37 37 102 102 308 325 325 325 325 386 386 386 69 69 69
 335 335 335 374 277 277 214 214 214 214 214 214 37 37 37 37 37 37 37 308
 174 325 325 325 325 69 129 129 129 69 128 128 128 374 82 82 82 214 214 214
 214 214 37 37 37 37 37 37 37 37 174 174 174 325 324 129 129 129 129 69
 128 128 128 47 82 82 82 47 202 202 202 27 27 37 37 37 37 37 37 174
 174 174 174 324 324 324 129 129 129 69 128 128 128 47 82 82 82 47 202 202
 202 27 27 21 21 21 19 19 19 19 328 328 328 324 324 324 324 324 324 324
 128 128 252 252 47 47 47 47 34 34 34 21 21 21 21 21 19 19 19 19
 245 245 245 324 324 324 324 324 324 324 128 252 252 252 252 252 47 34 34 34
 34 21 21 21 21 21 19 19 19 245 245 245 245 324 324 324 324 324 324 324
 359 252 252 252 252 276 276 291 34 34 34 21 21 21 21 21 19 19 245 245
 245 245 245 245 324 324 324 324 324 154 154 154 252 252 276 276 276 291 291 285
 34 21 21 21 21 188 188 188 245 245 245 245 245 245 324 324 324 324 154 154
 154 154 154 359 276 276 276 291 291 291 291 285 21 188 188 188 188 188 245 245
 245 245 245 245 245 324 324 154 154 154 154 154 154 362 276 276 276 291 291 291
 291 291 235 235 235 188 188 188 245 245 245 245 245 229 229 203 154 154 154 154
 154 154 154 362 362 362 291 291 291 291 134 134 235 235 235 188 351 351 351 245