# vtk DataFile Version 2.0
Data set from ImportExport Version 6.5.141.ec284b7a5
ASCII

DATASET RECTILINEAR_GRID
DIMENSIONS 26 26 26
X_COORDINATES 26 float
-3.000000 3.000000 9.000000 15.000000 21.000000 27.000000 33.000000 39.000000 45.000000 51.000000 57.000000 63.000000 69.000000 75.000000 81.000000 87.000000 93.000000 99.000000 105.000000 111.000000 117.000000 
123.000000 129.000000 135.000000 141.000000 147.000000 
Y_COORDINATES 26 float
-3.000000 3.000000 9.000000 15.000000 21.000000 27.000000 33.000000 39.000000 45.000000 51.000000 57.000000 63.000000 69.000000 75.000000 81.000000 87.000000 93.000000 99.000000 105.000000 111.000000 117.000000 
123.000000 129.000000 135.000000 141.000000 147.000000 
Z_COORDINATES 26 float
-3.000000 3.000000 9.000000 15.000000 21.000000 27.000000 33.000000 39.000000 45.000000 51.000000 57.000000 63.000000 69.000000 75.000000 81.000000 87.000000 93.000000 99.000000 105.000000 111.000000 117.000000 
123.000000 129.000000 135.000000 141.000000 147.000000 
CELL_DATA 15625
SCALARS FeatureIds int 1
LOOKUP_TABLE default
 80 80 80 37 37 37 37 37 37 37 6 6 6 6 6 81 81 81 81 81
 81 80 80 80 80 80 80 80 37 37 37 37 37 37 37 6 6 6 81 81
 81 81 81 81 16 16 80 80 80 80 80 80 80 37 37 37 26 26 26 26
 26 26 6 81 81 81 81 81 16 16 16 80 80 80 80 80 80 80 80 26
 26 26 26 26 26 26 26 26 61 81 81 81 16 16 16 16 80 80 80 80
 80 80 80 26 26 26 26 26 26 26 26 26 26 61 61 61 16 16 16 16
 16 16 80 80 80 80 84 84 26 26 26 26 26 26 26 26 26 61 61 61
 61 16 16 16 16 16 16 16 80 2 84 84 84 84 26 26 26 26 26 26
 26 26 26 61 61 87 87 87 16 16 16 16 2 2 84 84 84 84 84 84
 26 26 26 26 26 26 26 26 26 87 87 87 39 39 16 16 2 2 84 84
 84 84 84 84 84 26 26 26 26 26 26 26 26 26 87 87 87 39 39 16
 16 2 2 84 84 84 84 84 84 84 26 26 26 26 26 26 26 26 26 26
 87 87 39 39 50 50 50 50 50 84 84 84 84 84 29 29 26 26 26 26
 26 26 26 26 26 28 28 17 17 50 50 50 50 50 50 50 84 84 29 29
 29 26 26 26 26 26 26 26 57 57 17 17 17 17 50 50 50 50 50 50
 50 50 50 29 29 29 29 26 26 26 57 57 57 57 57 17 17 17 17 17
 50 50 50 50 50 50 50 50 29 29 11 11 11 11 11 57 57 57 57 57
 17 17 17 17 17 50 50 50 50 50 50 50 50 29 11 11 11 11 11 46
 46 57 57 57 57 17 17 17 17 17 50 50 50 50 50 50 50 50 50 11
 11 11 11 11 46 46 46 57 57 57 17 17 17 17 17 50 50 50 50 50
 50 31 31 31 11 11 11 11 11 46 46 46 46 46 46 17 17 17 17 50
 50 50 50 50 50 50 31 31 31 11 11 11 11 46 46 46 46 46 46 46
 54 54 54 54 45 45 50 50 50 50 78 78 78 78 42 42 42 11 46 46
 46 46 46 46 46 54 54 54 54 45 45 45 45 50 50 78 78 78 78 37
 37 37 37 46 46 76 76 6 6 6 54 54 54 54 45 45 45 45 45 45
 78 78 78 37 37 37 37 37 76 76 76 76 6 6 6 54 54 54 54 45
 45 45 45 33 45 78 78 37 37 37 37 37 37 37 76 76 76 6 6 6
 6 6 54 54 45 45 45 33 33 33 37 37 37 37 37 37 37 37 37 37
 6 6 6 6 6 6 6 81 81 45 45 45 45 33 33 80 37 37 37 37
 37 37 37 37 37 6 6 6 6 6 6 6 81 81 81 80 80 80 80 80
 80 80 37 37 37 37 37 37 37 37 6 6 6 6 6 6 81 81 81 81
 80 80 80 80 80 80 80 80 14 37 37 37 37 37 37 6 6 6 6 81
 81 81 81 81 81 81 80 80 80 80 80 80 80 14 37 37 37 37 37 26
 26 6 6 81 81 81 81 81 81 81 81 80 80 80 80 80 80 80 80 37
 26 26 26 26 26 26 26 6 81 81 81 81 81 81 81 80 80 80 80 80
 80 80 80 80 26 26 26 26 26 26 26 26 26 61 81 81 81 81 81 81
 80 80 80 80 80 80 80 80 26 26 26 26 26 26 26 26 26 61 61 61
 61 81 16 16 16 16 80 80 80 80 2 84 84 26 26 26 26 26 26 26
 26 26 61 61 61 61 61 16 16 16 16 2 2 2 2 2 84 84 84 26
 26 26 26 26 26 26 26 26 61 61 87 87 87 16 16 2 2 2 2 2
 84 84 84 84 26 26 26 26 26 26 26 26 26 26 87 87 87 39 39 16
 2 2 2 2 2 84 84 84 84 84 26 26 26 26 26 26 26 26 26 87
 87 87 87 87 16 2 2 2 2 84 84 84 84 84 84 26 26 26 26 26
 26 26 26 26 87 28 28 28 17 17 2 2 2 2 84 84 84 84 84 84
 26 26 26 26 26 26 26 26 26 28 28 28 28 17 17 50 50 50 50 84
 50 84 84 84 29 29 26 26 26 26 26 26 57 57 57 28 28 17 17 17
 50 50 50 50 50 50 50 50 29 29 29 11 26 26 26 57 57 57 57 57
 17 17 17 17 17 50 50 50 50 50 50 50 50 50 29 11 11 11 11 11
 57 57 57 57 57 17 17 17 17 17 50 50 50 50 50 50 50 50 50 11
 11 11 11 11 46 46 57 57 57 57 17 17 17 17 17 50 50 50 50 50
 50 50 50 50 11 11 11 11 11 46 46 46 57 57 57 17 17 17 17 17
 50 50 50 50 50 50 50 50 42 42 11 11 11 46 46 46 46 46 46 46
 17 17 17 17 50 50 50 50 50 50 50 31 31 42 42 42 42 46 46 46
 46 46 46 46 46 46 17 45 45 45 45 45 50 50 50 78 78 78 42 42
 42 42 46 46 46 46 46 46 46 46 74 54 45 45 45 45 45 45 45 45
 78 78 78 42 42 42 42 46 46 46 46 46 74 74 74 74 54 45 45 45
 45 45 45 45 45 45 78 78 37 37 42 42 14 76 76 76 76 74 74 74
 74 74 45 45 45 45 45 45 45 45 45 78 37 37 37 14 14 14 14 76
 76 76 76 74 74 74 74 45 45 45 45 45 45 45 45 80 37 37 37 37
 14 14 14 14 76 76 76 6 74 74 6 6 81 81 45 45 45 45 45 80
 80 37 37 37 14 14 14 37 37 37 6 6 6 6 6 6 81 81 81 81
 45 45 80 80 80 80 80 14 37 14 14 37 37 37 37 6 6 6 6 6
 81 81 81 81 81 81 80 80 80 80 80 80 14 14 14 14 14 14 14 65
 65 65 6 81 81 81 81 81 81 81 81 80 80 80 80 80 80 80 14 14
 14 14 14 26 65 65 65 81 81 81 81 81 81 81 81 81 80 80 80 80
 80 80 80 14 14 14 26 26 26 26 26 26 81 81 81 81 81 81 81 81
 81 80 80 80 80 80 80 80 88 26 26 26 26 26 26 26 26 26 61 81
 81 81 81 81 81 81 80 80 80 80 80 80 80 88 26 26 26 26 26 26
 26 26 61 61 61 81 81 81 81 81 81 2 2 2 2 2 2 2 26 26
 26 26 26 26 26 26 26 61 61 61 61 81 81 81 16 2 2 2 2 2
 2 84 84 84 70 26 26 26 26 26 26 26 26 61 61 87 87 87 2 2
 2 2 2 2 2 2 84 84 84 70 26 26 26 26 26 26 26 26 26 87
 87 87 87 87 2 2 2 2 2 2 84 84 84 84 70 70 26 26 26 26
 26 26 26 26 87 87 87 87 87 2 2 2 2 2 2 84 84 84 84 84
 26 26 26 26 26 26 26 26 26 28 28 28 28 28 2 2 2 2 2 84
 84 84 84 84 84 26 26 26 26 26 26 26 26 26 28 28 28 28 28 28
 50 50 50 50 50 50 84 84 84 84 56 26 26 26 26 26 57 57 57 21
 28 28 28 17 17 50 50 50 50 50 50 50 50 84 84 56 56 46 46 46
 46 57 57 57 21 28 28 17 17 17 50 50 50 50 50 50 50 50 50 29
 11 11 46 46 46 46 57 57 57 21 21 17 17 17 17 50 50 50 50 50
 50 50 50 50 29 11 11 11 46 46 46 57 57 57 21 21 17 17 17 17
 50 50 50 50 50 50 50 50 50 42 42 11 46 46 46 46 46 46 57 21
 21 21 17 17 17 50 50 50 50 50 50 50 42 42 42 42 46 46 46 46
 46 46 46 46 46 21 21 17 45 45 45 50 50 50 50 50 50 42 42 42
 42 42 46 46 46 46 46 46 46 46 21 45 45 45 45 45 45 45 45 45
 45 45 42 42 42 42 42 42 46 46 46 46 46 46 46 74 45 45 45 45
 45 45 45 45 45 45 45 42 42 42 42 42 42 46 46 46 46 74 74 74
 74 74 45 45 45 45 45 45 45 45 45 45 42 42 42 42 42 42 42 46
 76 74 74 74 74 74 74 45 45 45 45 45 45 45 45 45 45 14 14 14
 14 14 14 14 76 76 76 74 74 74 74 74 45 45 45 45 45 45 45 45
 45 14 14 14 14 14 14 14 14 14 76 74 74 74 74 74 74 45 45 45
 45 45 45 45 45 80 14 14 14 14 14 14 14 14 14 74 74 74 74 74
 74 81 81 81 81 81 45 45 80 80 80 80 14 14 14 14 14 14 14 14
 6 6 6 74 81 81 81 81 81 81 81 80 80 80 80 80 80 14 14 14
 14 14 14 14 65 65 65 65 81 81 81 81 81 81 81 81 80 80 80 80
 80 80 14 14 14 14 14 14 14 65 65 65 65 81 81 81 81 81 81 81
 81 80 80 80 80 80 80 14 14 14 14 14 26 26 26 65 65 81 81 81
 81 81 81 81 81 81 80 80 80 80 80 80 88 88 14 26 26 26 26 26
 26 26 81 81 81 81 81 81 81 81 81 80 80 80 80 2 2 88 88 70
 26 26 26 26 26 26 26 26 61 81 81 81 81 81 81 81 2 2 2 2
 2 2 88 70 70 70 26 26 26 26 26 26 26 26 61 81 81 81 81 81
 2 2 2 2 2 2 88 88 70 70 70 26 26 26 26 26 26 26 26 61
 87 87 87 44 2 2 2 2 2 2 2 84 84 84 70 70 70 26 26 26
 26 26 26 26 87 87 87 87 44 2 2 2 2 2 2 2 84 84 88 70
 70 70 26 26 26 26 26 26 26 26 87 87 28 44 44 2 2 2 2 2
 84 84 84 84 70 70 56 26 26 26 26 26 26 26 21 28 28 28 28 44
 2 2 2 2 2 84 84 84 84 56 56 56 56 26 26 26 26 26 21 21
 28 28 28 21 21 50 50 50 50 50 50 84 84 84 56 56 56 56 46 46
 46 46 21 21 21 28 28 28 21 21 50 50 50 50 50 50 50 84 84 56
 56 56 46 46 46 46 46 57 21 21 21 28 28 21 21 50 50 50 50 50
 50 50 50 50 56 56 46 46 46 46 46 46 57 57 21 21 21 21 17 17
 50 50 50 50 50 50 50 50 50 46 46 46 46 46 46 46 46 57 57 21
 21 21 21 21 21 50 50 50 50 50 50 50 50 42 42 46 46 46 46 46
 46 46 46 46 21 21 21 21 21 50 50 50 50 50 50 50 50 42 42 42
 42 46 46 46 46 46 46 46 46 46 21 21 21 45 45 45 45 45 45 50
 45 45 42 42 42 42 42 46 46 46 46 46 46 46 46 21 21 45 45 45
 45 45 45 45 45 45 45 42 42 42 42 42 42 46 46 46 46 46 46 46
 46 45 45 45 45 45 45 45 45 45 45 45 42 42 42 42 42 42 42 46
 46 46 74 74 74 74 74 45 45 45 45 45 45 45 45 45 45 42 42 42
 42 42 42 42 46 46 74 74 74 74 74 45 45 45 45 45 45 45 45 45
 45 45 14 14 14 14 14 14 14 14 76 74 74 74 74 74 74 45 45 45
 45 45 45 45 45 45 14 14 14 14 14 14 14 14 14 74 74 74 74 74
 74 74 45 45 45 45 45 45 45 45 80 14 14 14 14 14 14 14 14 14
 74 74 74 74 74 74 81 81 81 81 45 45 45 80 80 80 14 14 14 14
 14 14 14 14 14 65 65 74 74 81 81 81 81 81 81 81 80 80 80 80
 80 14 14 14 14 14 14 14 14 14 65 65 65 81 81 81 81 81 81 81
 81 81 80 80 80 80 14 14 14 14 14 14 14 14 14 65 65 65 81 81
 81 81 81 81 81 81 81 80 80 80 80 80 14 14 14 14 14 14 26 26
 65 49 81 81 81 81 81 81 81 81 81 81 80 80 80 80 80 88 88 14
 14 26 26 26 26 26 49 49 81 81 81 81 81 81 81 81 81 80 80 80
 2 88 88 88 88 70 26 26 26 26 26 49 49 49 81 81 81 81 81 81
 81 2 2 2 2 2 88 88 88 70 70 70 26 26 26 26 26 49 49 81
 81 81 81 81 44 2 2 2 2 2 2 88 88 88 70 70 70 26 26 26
 26 26 26 26 61 87 87 8 44 44 44 2 2 2 2 2 88 88 88 70
 70 70 70 26 26 26 26 26 26 87 87 87 44 44 44 44 2 2 2 2
 2 88 88 88 70 70 70 70 26 26 26 26 26 26 21 21 28 28 44 44
 44 2 2 2 2 2 88 88 88 70 56 56 56 56 26 26 26 26 26 21
 21 28 28 21 44 2 2 2 2 2 84 84 88 88 56 56 56 56 56 56
 26 26 21 21 21 21 28 28 21 21 50 50 50 2 2 50 84 88 56 56
 56 56 56 56 46 46 46 21 21 21 21 28 21 21 21 50 50 50 50 50
 50 50 88 56 56 56 56 56 46 46 46 46 46 21 21 21 21 21 21 21
 50 50 50 50 50 50 50 50 56 56 56 56 46 46 46 46 46 46 21 21
 21 21 21 21 21 50 50 50 50 50 50 50 50 42 56 56 46 46 46 46
 46 46 46 21 21 21 21 21 21 21 50 50 50 50 50 50 50 42 42 42
 46 46 46 46 46 46 46 46 46 21 21 21 21 21 45 45 45 50 50 50
 45 45 42 42 42 42 46 46 46 46 46 46 46 46 21 21 21 21 45 45
 45 45 45 45 45 45 45 42 42 42 42 42 46 46 46 46 46 46 46 46
 21 21 45 45 45 45 45 45 45 45 45 45 42 42 42 42 42 42 46 46
 46 46 46 46 46 21 45 45 45 45 45 45 45 45 45 45 45 42 42 42
 42 42 42 42 46 46 46 74 74 74 74 45 45 45 45 45 45 45 45 45
 45 45 42 42 42 42 42 42 42 46 46 74 74 74 74 74 45 45 45 45
 45 45 45 45 45 45 45 14 14 14 14 14 14 14 14 46 74 74 74 74
 74 45 45 45 45 45 45 45 45 45 45 14 14 14 14 14 14 14 14 14
 73 73 74 74 74 74 74 45 45 45 45 45 45 45 45 14 14 14 14 14
 14 14 14 14 14 73 73 74 74 74 74 81 81 81 45 45 45 45 45 45
 14 14 14 14 14 14 14 14 14 14 73 73 73 74 81 81 81 81 81 81
 81 45 80 80 80 14 14 14 14 14 14 14 14 14 14 65 65 12 12 12
 12 81 81 81 81 81 81 80 80 80 14 14 14 14 14 14 14 14 14 14
 65 65 65 12 12 81 81 81 81 81 81 81 80 80 80 80 14 14 14 14
 14 14 14 14 49 49 49 49 12 12 81 81 81 81 81 81 81 80 80 80
 88 88 88 88 88 14 14 26 26 49 49 49 49 49 12 81 81 81 81 81
 81 81 40 40 40 88 88 88 88 88 88 88 26 26 49 49 49 49 49 12
 81 8 8 8 8 81 40 2 2 2 88 88 88 88 88 70 70 70 26 49
 49 49 49 49 81 8 8 8 8 8 8 2 2 2 2 88 88 88 88 70
 70 70 70 26 26 49 49 49 49 49 8 8 8 8 44 44 2 2 2 2
 88 88 88 88 70 70 70 70 56 26 26 49 49 49 49 8 8 8 44 44
 44 2 2 2 2 88 88 88 88 70 70 70 56 56 56 26 26 26 26 21
 21 28 8 44 44 44 2 2 2 2 88 88 88 88 88 56 56 56 56 56
 56 26 26 21 21 21 21 21 44 44 44 2 2 2 2 88 88 88 88 56
 56 56 56 56 56 56 46 21 21 21 21 21 21 21 21 3 3 50 2 2
 50 88 88 56 56 56 56 56 56 56 46 46 21 21 21 21 21 21 21 21
 21 50 50 50 50 50 88 88 56 56 56 56 56 46 46 46 46 21 21 21
 21 21 21 21 21 21 50 50 50 50 50 50 88 56 56 56 56 46 46 46
 46 46 46 21 21 21 21 21 21 21 50 50 50 50 50 50 50 50 56 56
 56 46 46 46 46 46 46 46 21 21 21 21 21 21 21 21 50 50 50 50
 45 1 42 42 42 46 46 46 46 46 46 46 46 46 21 21 21 21 21 45
 45 45 45 45 45 45 1 42 42 42 42 46 46 46 46 46 46 46 46 21
 21 21 21 45 45 45 45 45 45 45 45 1 42 42 42 42 42 46 46 46
 46 46 46 46 46 21 21 45 45 45 45 45 45 45 45 45 1 42 42 42
 42 42 42 46 46 46 46 46 46 46 21 45 45 45 45 45 45 45 45 45
 45 1 42 42 42 42 42 42 42 46 46 46 46 46 74 74 45 45 45 45
 45 45 45 45 45 45 45 42 42 42 42 42 42 42 42 46 46 74 74 74
 74 45 45 45 45 45 45 45 45 45 45 45 14 14 14 14 14 14 14 14
 46 74 74 74 74 74 45 45 45 45 45 45 45 45 45 45 14 14 14 14
 14 14 14 14 14 73 73 73 74 74 74 74 45 45 45 45 45 45 45 45
 14 14 14 14 14 14 14 14 14 14 73 73 73 74 12 12 12 81 45 45
 45 45 45 45 45 14 14 14 14 14 14 14 14 14 14 73 73 73 12 12
 12 81 81 81 81 81 45 45 45 20 20 14 14 14 14 14 14 14 14 14
 12 12 12 12 12 12 12 12 81 81 81 20 20 20 20 20 14 14 14 14
 14 14 14 14 14 49 12 12 12 12 12 12 12 81 81 81 81 20 20 20
 20 14 14 14 14 14 14 14 14 49 49 49 49 12 12 12 12 12 81 81
 81 81 40 40 40 88 88 88 88 88 88 88 88 49 49 49 49 49 49 12
 12 12 12 12 81 81 40 40 40 40 88 88 88 88 88 88 88 88 49 49
 49 49 49 49 12 12 8 8 8 8 40 40 40 40 40 88 88 88 88 88
 88 70 70 49 49 49 49 49 49 49 8 8 8 8 8 40 40 40 40 40
 88 88 88 88 88 70 70 70 56 49 49 49 49 49 49 8 8 8 8 8
 44 40 40 40 40 88 88 88 88 88 70 70 56 56 56 49 49 49 49 49
 8 8 8 8 44 44 40 40 40 88 88 88 88 88 88 70 56 56 56 56
 56 49 49 49 49 21 75 75 44 44 44 2 2 40 88 88 88 88 88 88
 56 56 56 56 56 56 49 49 21 21 21 21 75 75 3 3 3 2 2 88
 88 88 88 88 56 56 56 56 56 56 56 46 21 21 21 21 21 21 21 3
 3 3 3 3 88 88 88 88 56 56 56 56 56 56 56 46 46 21 21 21
 21 21 21 21 3 3 3 3 3 50 88 88 88 56 56 56 56 56 56 46
 46 46 46 21 21 21 21 21 21 21 3 3 63 63 63 50 88 88 56 56
 56 56 56 46 46 46 46 46 21 21 21 21 21 21 21 63 63 63 63 63
 1 1 1 56 56 56 46 46 46 46 46 46 46 21 21 21 21 21 21 21
 63 63 63 63 63 1 1 1 42 42 46 46 46 46 46 46 46 46 46 21
 21 21 21 21 45 45 45 45 45 45 1 1 1 42 42 42 46 46 46 46
 46 46 46 46 21 21 21 21 45 45 45 45 45 45 45 1 1 1 42 42
 42 42 46 46 46 46 46 46 46 46 21 21 45 45 45 45 45 45 45 45
 1 1 1 42 42 42 42 42 46 46 46 46 46 46 46 21 45 45 45 45
 45 45 45 45 1 1 1 42 42 42 42 42 42 42 46 46 46 46 46 46
 45 45 45 45 45 45 45 45 45 45 1 1 42 42 42 42 42 42 42 42
 46 46 46 46 74 74 45 45 45 45 45 45 45 45 45 45 1 14 14 14
 14 14 14 14 14 46 74 46 46 74 74 45 45 45 45 45 45 45 45 45
 20 14 14 14 14 14 14 14 14 14 73 73 73 12 12 12 12 45 45 45
 45 45 45 45 20 20 14 14 14 14 14 14 14 14 14 73 73 73 12 12
 12 12 12 45 45 45 20 20 20 20 20 14 14 14 14 14 14 14 14 14
 73 73 12 12 12 12 12 12 12 81 20 20 20 20 20 20 20 14 14 14
 14 14 14 14 14 12 12 12 12 12 12 12 12 12 12 20 20 20 20 20
 20 20 14 14 14 14 14 14 14 14 12 12 12 12 12 12 12 12 12 12
 81 20 20 20 20 20 20 14 14 14 14 14 14 14 49 49 49 12 12 12
 12 12 12 12 12 12 40 40 40 40 40 88 88 88 88 88 88 88 49 49
 49 49 49 12 12 12 12 12 12 12 40 40 40 40 40 40 88 88 88 88
 88 88 88 49 49 49 49 49 49 12 12 8 8 8 8 40 40 40 40 40
 88 88 88 88 88 88 88 88 49 49 49 49 49 49 49 12 8 8 8 8
 40 40 40 40 40 88 88 88 88 88 88 88 88 49 49 49 49 49 49 49
 12 8 8 8 8 40 40 40 40 40 88 88 88 88 88 88 88 56 56 49
 49 49 49 49 49 49 8 8 8 8 40 40 40 40 40 88 88 88 88 88
 88 56 56 56 56 49 49 49 49 49 49 75 75 75 44 3 3 40 40 88
 88 88 88 88 88 56 56 56 56 56 56 49 49 21 21 21 75 75 75 3
 3 3 3 40 88 88 88 88 88 56 56 56 56 56 56 56 56 21 21 21
 21 21 75 3 3 3 3 3 3 88 88 88 88 56 56 56 56 56 56 56
 46 46 21 21 21 21 21 21 3 3 3 3 3 63 63 88 88 88 56 56
 56 56 56 56 46 46 46 46 21 21 21 21 21 21 3 3 3 63 63 63
 1 88 88 56 56 56 56 56 46 46 46 46 46 21 21 21 21 21 21 63
 63 63 63 63 63 1 1 1 56 56 56 46 46 46 46 46 46 46 21 21
 21 21 21 21 63 63 63 63 63 63 1 1 1 1 42 46 46 46 46 46
 46 46 46 46 21 21 21 21 21 32 63 63 63 45 45 1 1 1 1 42
 42 46 46 46 46 46 46 46 46 21 21 21 21 45 45 45 45 45 45 45
 1 1 1 42 42 42 42 46 46 46 46 46 46 46 46 21 21 45 45 45
 45 45 45 45 1 1 1 1 42 42 42 42 42 46 46 46 46 46 46 46
 21 45 45 45 45 45 45 45 45 1 1 1 1 42 42 42 42 42 42 46
 46 46 46 46 46 45 45 45 45 45 45 45 45 45 1 1 1 1 42 42
 42 42 42 42 46 46 46 46 46 74 45 45 45 45 45 45 45 45 45 1
 1 1 14 14 14 14 14 14 14 14 46 46 46 12 12 12 45 45 45 45
 45 45 45 45 20 20 20 14 14 14 14 14 14 14 14 73 73 73 12 12
 12 12 45 45 45 45 20 20 20 20 20 20 14 14 14 14 14 14 14 14
 73 12 12 12 12 12 12 12 12 45 20 20 20 20 20 20 20 14 14 14
 14 14 14 14 14 73 12 12 12 12 12 12 12 12 12 20 20 20 20 20
 20 20 14 14 14 14 14 14 14 12 12 12 12 12 12 12 12 12 12 12
 20 20 20 20 20 20 20 14 14 14 14 14 14 14 12 12 12 12 12 12
 12 12 12 12 12 20 20 20 20 20 40 40 88 14 14 14 14 14 49 49
 49 12 12 12 12 12 12 12 12 12 40 40 40 40 40 40 88 88 88 88
 88 88 88 49 49 49 49 49 12 12 12 12 12 12 12 40 40 40 40 40
 40 88 88 88 88 88 88 88 49 49 49 49 49 49 12 12 12 12 8 12
 40 40 40 40 40 40 88 88 88 88 88 88 88 49 49 49 49 49 49 49
 12 8 8 8 8 40 40 40 40 40 40 88 88 88 88 88 88 88 49 49
 49 49 49 49 49 12 8 8 8 8 40 40 40 40 40 88 88 88 88 88
 88 88 56 56 49 49 49 49 49 49 12 8 8 8 8 40 40 40 40 40
 88 88 88 88 88 88 56 56 56 56 49 49 49 49 49 18 75 75 75 3
 3 3 40 40 40 88 88 88 88 88 56 56 56 56 56 56 49 49 18 18
 18 75 75 75 3 3 3 3 3 88 88 88 88 88 56 56 56 56 56 56
 56 56 18 18 21 21 21 75 3 3 3 3 3 3 3 88 88 88 56 56
 56 56 56 56 56 56 46 46 21 21 21 21 21 3 3 3 3 3 63 63
 88 88 88 56 56 56 56 56 56 46 46 46 46 21 21 21 21 21 3 3
 3 63 63 63 63 1 1 88 56 56 56 56 56 46 46 46 46 46 21 21
 21 21 21 32 63 63 63 63 63 63 1 1 1 56 56 56 56 46 46 46
 46 46 46 21 21 21 21 32 32 32 63 63 63 63 63 1 1 1 1 56
 56 46 46 46 46 46 46 46 46 21 21 21 32 32 32 63 63 63 63 1
 1 1 1 1 42 42 46 46 46 46 46 46 46 46 21 21 21 32 32 32
 32 45 63 1 1 1 1 1 1 42 42 42 46 46 46 46 46 46 46 46
 21 21 45 45 45 45 45 45 1 1 1 1 1 1 42 42 79 79 79 46
 46 46 46 46 46 21 45 45 45 45 45 45 45 1 1 1 1 1 1 42
 42 42 79 79 79 46 46 46 46 46 45 45 45 45 45 45 45 45 1 1
 1 1 1 42 42 42 42 79 79 79 46 46 46 46 46 45 45 45 45 45
 45 45 45 45 1 20 1 1 14 14 14 14 14 14 14 19 19 19 12 12
 12 12 45 45 45 45 20 20 20 20 20 20 14 14 14 14 14 14 14 14
 12 12 12 12 12 12 12 12 45 45 20 20 20 20 20 20 20 14 14 14
 14 14 14 14 14 12 12 12 12 12 12 12 12 12 12 20 20 20 20 20
 20 20 14 14 14 14 14 14 14 14 12 12 12 12 12 12 12 12 12 12
 20 20 20 20 20 20 20 20 14 14 14 14 14 35 12 12 12 12 12 12
 12 12 12 12 12 20 20 20 20 20 20 20 20 14 14 14 14 35 35 35
 12 12 12 12 12 12 12 12 12 12 20 20 20 5 20 40 40 88 88 88
 14 14 35 35 35 12 12 12 12 12 12 12 12 12 12 40 40 40 40 40
 40 40 88 88 88 88 88 35 35 49 49 49 12 12 12 12 12 12 12 12
 40 40 40 40 40 40 40 88 88 88 88 88 88 49 49 49 49 49 12 12
 12 12 12 12 12 40 40 40 40 40 40 88 88 88 88 88 88 88 49 49
 49 49 49 49 12 12 12 12 12 12 40 40 40 40 40 40 88 88 88 88
 88 88 88 49 49 49 49 49 49 49 12 8 8 8 8 40 40 40 40 40
 40 88 88 88 88 88 88 56 56 49 49 49 49 49 49 12 8 8 8 40
 40 40 40 40 40 88 88 88 88 88 88 56 56 56 56 49 49 49 18 18
 18 75 75 3 3 3 40 40 40 40 88 88 88 88 88 56 56 56 56 56
 56 18 18 18 18 18 75 75 3 3 3 3 3 3 40 88 88 88 88 56
 56 56 56 56 56 56 18 18 18 18 18 21 3 3 3 3 3 3 3 3
 9 9 9 9 56 56 56 56 56 56 56 18 18 18 18 18 21 3 3 3
 3 3 3 63 63 9 9 9 9 9 56 56 56 56 56 46 18 18 18 18
 21 32 32 32 3 63 63 63 63 63 9 9 9 9 9 56 56 56 46 46
 46 46 46 18 18 21 32 32 32 63 63 63 63 63 63 1 9 9 9 9
 9 56 46 46 46 46 46 46 21 21 21 32 32 32 32 63 63 63 63 63
 1 1 1 1 9 9 46 46 46 46 60 60 46 46 21 21 32 32 32 32
 32 63 63 63 63 1 1 1 1 1 79 46 46 46 60 60 60 46 46 21
 21 32 32 32 32 32 32 32 1 1 1 1 1 1 1 79 79 79 79 79
 46 46 46 46 46 21 32 32 32 32 32 32 45 1 1 1 1 1 1 79
 79 79 79 79 79 46 46 46 46 46 21 32 32 32 32 45 45 45 1 1
 1 1 1 1 79 79 79 79 79 79 79 46 46 46 46 19 45 45 45 45
 45 45 45 1 1 1 1 1 1 42 79 79 79 79 79 79 19 19 19 19
 19 53 53 45 45 45 45 20 20 1 20 20 1 14 14 79 79 79 79 79
 19 19 19 12 12 12 12 53 45 45 20 20 20 20 20 20 20 20 14 14
 14 14 14 14 14 19 19 19 12 12 12 12 12 12 20 20 20 20 20 20
 20 20 20 14 14 14 14 14 14 14 12 12 12 12 12 12 12 12 12 20
 20 20 20 20 20 20 20 20 14 14 14 14 14 35 35 12 12 12 12 12
 12 12 12 12 12 20 20 20 20 20 20 20 20 14 14 14 35 35 35 35
 35 12 12 12 12 12 12 12 12 12 20 20 5 5 20 5 20 20 14 14
 14 35 35 35 35 35 12 12 12 12 12 12 12 12 12 62 5 5 5 5
 5 5 88 88 88 35 35 35 35 35 35 12 12 12 12 12 12 12 12 12
 62 40 5 5 5 40 40 88 88 88 88 35 35 35 35 35 12 12 12 12
 12 12 12 12 62 62 40 40 40 40 40 40 88 88 88 88 88 35 35 35
 49 49 12 12 12 12 12 12 12 62 62 40 40 40 40 40 40 88 88 88
 88 88 88 49 49 49 49 49 12 12 12 12 12 12 62 62 40 40 40 40
 40 88 88 88 88 88 88 88 49 49 49 49 49 49 12 12 12 12 12 12
 40 40 40 40 40 40 88 88 88 88 88 88 56 56 49 49 49 49 49 49
 12 12 8 12 40 40 40 40 40 40 40 88 88 88 88 88 56 56 56 56
 18 18 18 18 18 18 18 75 3 3 3 40 40 40 40 9 9 9 9 9
 9 56 56 56 56 18 18 18 18 18 18 18 3 3 3 3 3 3 40 40
 9 9 9 9 9 9 56 56 56 56 18 18 18 18 18 18 18 3 3 3
 3 3 3 3 9 9 9 9 9 9 9 9 56 56 56 18 18 18 18 18
 18 18 3 3 3 3 3 63 63 63 9 9 9 9 9 9 9 56 56 60
 18 18 18 18 18 18 32 32 32 63 63 63 63 63 63 9 9 9 9 9
 9 9 9 60 60 60 60 18 18 18 18 32 32 32 32 63 63 63 63 63
 9 9 9 9 9 9 9 60 60 60 60 60 60 60 18 32 32 32 32 32
 32 63 63 63 63 1 1 9 9 9 9 9 60 60 60 60 60 60 60 60
 32 32 32 32 32 32 32 63 63 63 1 1 1 1 79 79 79 79 60 60
 60 60 60 60 60 32 32 32 32 32 32 32 32 1 1 1 1 1 1 79
 79 79 79 79 60 60 60 60 60 60 32 32 32 32 32 32 32 32 1 1
 1 1 1 1 79 79 79 79 79 79 79 60 60 19 19 19 32 32 32 32
 32 32 45 1 1 1 1 1 1 79 79 79 79 79 79 79 19 19 19 19
 19 53 53 32 32 45 45 45 1 1 1 1 1 1 79 79 79 79 79 79
 79 19 19 19 19 19 53 53 53 45 45 20 20 20 20 20 20 1 1 79
 79 79 79 79 79 19 19 19 19 19 19 53 53 53 20 20 20 20 20 20
 20 20 20 14 14 79 79 79 79 79 19 19 19 19 19 19 12 53 53 20
 20 20 20 20 20 20 20 20 14 14 14 14 35 35 35 19 19 19 12 12
 12 12 12 12 20 20 20 20 20 20 20 20 20 14 14 14 35 35 35 35
 35 12 12 12 12 12 12 12 12 12 20 20 20 20 20 20 20 20 35 35
 35 35 35 35 35 35 35 12 12 12 12 12 12 12 62 62 5 5 5 5
 5 5 5 35 35 35 35 35 35 35 35 35 12 12 12 12 12 12 12 62
 62 5 5 5 5 5 5 5 88 35 35 35 35 35 35 35 35 12 12 12
 12 12 12 62 62 62 62 5 5 5 40 40 88 88 88 35 35 35 35 35
 35 35 12 12 12 12 12 12 62 62 62 62 40 5 5 40 40 88 88 88
 35 35 35 35 35 35 35 12 12 12 12 12 12 62 62 62 40 40 40 40
 40 40 88 88 88 88 35 35 35 35 49 49 49 12 12 12 12 12 62 62
 62 40 40 40 40 40 40 88 88 88 88 88 88 25 25 49 49 49 49 12
 12 12 12 62 62 40 40 40 40 40 40 40 88 88 88 88 88 88 25 25
 25 49 18 18 18 18 12 12 62 40 40 40 40 40 40 9 9 9 9 9
 9 9 56 25 25 18 18 18 18 18 18 18 12 30 30 30 40 40 40 40
 9 9 9 9 9 9 9 9 56 18 18 18 18 18 18 18 18 59 59 59
 30 30 30 30 9 9 9 9 9 9 9 9 9 56 18 18 18 18 18 18
 18 7 59 59 59 59 3 3 9 9 9 9 9 9 9 9 9 9 56 18
 18 18 18 18 18 18 7 59 59 59 59 63 63 63 9 9 9 9 9 9
 9 9 9 9 18 18 18 18 18 18 7 7 32 32 32 63 63 63 63 9
 9 9 9 9 9 9 9 9 60 60 60 60 18 18 18 7 32 32 32 32
 32 63 63 63 63 9 9 9 9 9 9 9 9 60 60 60 60 60 60 18
 32 32 32 32 32 32 32 63 63 63 9 9 9 9 9 9 9 60 60 60
 60 60 60 60 18 32 32 32 32 32 32 32 32 32 32 1 1 9 9 9
 79 79 79 60 60 60 60 60 60 60 32 32 32 32 32 32 32 32 32 1
 1 1 1 1 79 79 79 79 79 60 60 60 60 60 60 32 32 32 32 32
 32 32 32 32 1 1 1 1 79 79 79 79 79 79 79 79 19 19 19 19
 19 32 32 32 32 32 32 32 1 1 1 1 1 79 79 79 79 79 79 79
 79 19 19 19 19 19 53 53 53 32 32 32 45 1 1 1 1 1 79 79
 79 79 79 79 79 19 19 19 19 19 19 53 53 53 53 32 20 20 20 20
 20 20 36 79 79 79 79 79 79 79 19 19 19 19 19 19 53 53 53 53
 20 20 20 20 20 20 20 20 20 79 79 79 79 79 35 19 19 19 19 19
 19 53 53 53 53 20 20 20 20 20 20 20 20 14 14 35 35 35 35 35
 35 19 19 19 19 12 12 53 53 53 20 20 20 20 20 20 20 20 14 35
 35 35 35 35 35 35 35 12 12 12 12 12 12 12 12 20 20 20 20 20
 20 20 20 35 35 35 35 35 35 35 35 35 35 12 12 12 12 12 62 62
 62 5 5 5 5 5 5 5 35 35 35 35 35 35 35 35 35 35 12 12
 12 12 12 62 62 62 62 5 5 5 5 5 5 35 35 35 35 35 35 35
 35 35 35 12 12 12 12 62 62 62 62 62 5 5 5 40 40 88 35 35
 35 35 35 35 35 35 35 35 12 12 12 12 62 62 62 62 62 62 5 5
 40 40 88 88 88 35 35 35 35 35 35 35 35 12 12 12 12 62 62 62
 62 62 40 40 40 40 40 88 88 88 35 35 35 35 35 35 35 35 12 12
 12 12 62 62 62 62 62 40 40 40 40 40 88 88 88 9 9 88 25 25
 25 25 34 34 34 12 12 62 62 62 62 62 40 40 40 40 9 9 9 9
 9 9 9 25 25 25 25 34 34 34 34 12 62 62 30 30 30 30 40 40
 9 9 9 9 9 9 9 9 25 25 25 18 18 18 18 18 18 59 30 30
 30 30 30 30 40 9 9 9 9 9 9 9 9 25 25 18 18 18 18 18
 18 18 59 59 59 30 30 30 30 9 9 9 9 9 9 9 9 9 9 18
 18 18 18 18 18 18 7 59 59 59 59 30 30 30 9 9 9 9 9 9
 9 9 9 9 18 18 18 18 18 18 7 7 59 59 59 59 59 30 30 9
 9 9 9 9 9 9 9 9 9 18 18 18 18 18 18 7 7 7 59 59
 59 59 63 63 9 9 9 9 9 9 9 9 9 60 60 60 60 18 18 18
 7 7 32 32 32 32 32 32 63 9 9 9 9 9 9 9 9 9 60 60
 60 60 60 60 18 7 32 32 32 32 32 32 32 63 9 9 9 9 9 9
 9 9 60 60 60 60 60 60 60 18 32 32 32 32 32 32 32 32 32 32
 9 9 9 9 9 9 79 79 60 60 60 60 60 60 60 32 32 32 32 32
 32 32 32 32 1 1 1 66 66 79 79 79 79 79 60 60 60 60 60 60
 32 32 32 32 32 32 32 32 32 1 1 1 66 66 79 79 79 79 79 79
 79 19 19 19 19 19 32 32 32 32 32 32 32 32 1 1 1 66 66 79
 79 79 79 79 79 19 19 19 19 19 19 53 53 53 53 32 32 32 1 1
 36 36 66 66 79 79 79 79 79 79 19 19 19 19 19 19 53 53 53 53
 32 20 20 20 20 20 36 36 36 79 79 79 79 79 79 19 19 19 19 19
 19 53 53 53 53 53 20 20 20 20 20 36 36 36 79 79 79 35 35 35
 19 19 19 19 19 19 53 53 53 53 20 20 20 20 20 20 20 36 36 35
 35 35 35 35 35 35 19 19 19 19 19 53 53 53 53 20 20 20 20 20
 20 20 20 35 35 35 35 35 35 35 35 35 19 19 12 12 12 12 12 53
 20 20 5 5 20 20 20 35 35 35 35 35 35 35 35 35 35 35 12 12
 12 12 12 62 62 62 62 5 5 5 5 5 5 35 35 35 35 35 35 35
 35 35 35 12 12 12 12 62 62 62 62 62 5 5 5 5 5 5 35 35
 35 35 35 35 35 35 35 35 12 12 12 12 62 62 62 62 62 62 5 5
 40 40 35 35 35 35 35 35 35 35 35 35 35 12 12 12 62 62 62 62
 62 62 62 5 5 40 40 88 35 35 35 35 35 35 35 35 35 35 12 12
 12 62 62 62 62 62 62 62 40 40 40 40 88 88 9 35 35 35 35 35
 35 35 35 34 12 12 62 62 62 62 62 62 62 40 40 40 9 9 88 9
 9 9 35 25 25 25 25 34 34 34 15 62 62 62 62 62 30 30 30 40
 9 9 9 9 9 9 9 25 25 25 25 25 34 34 34 15 15 62 30 30
 30 30 30 30 30 9 9 9 9 9 9 9 9 25 25 25 18 34 34 34
 15 15 59 30 30 30 30 30 30 30 9 9 9 9 9 9 9 9 25 25
 18 18 18 18 18 18 59 59 59 59 30 30 30 30 30 9 9 9 9 9
 9 9 9 9 18 18 18 18 18 18 7 7 59 59 59 59 30 30 30 9
 9 9 9 9 9 9 9 9 9 18 18 18 18 18 18 7 7 59 59 59
 59 30 30 30 9 9 9 9 9 9 9 9 9 9 18 18 18 18 18 7
 7 7 7 59 59 59 59 30 30 9 9 9 9 9 9 9 9 9 9 60
 60 18 18 18 7 7 7 32 32 59 32 32 32 9 9 9 9 9 9 9
 9 9 9 60 60 60 60 60 18 18 7 7 32 32 32 32 32 32 32 9
 9 9 9 9 9 9 9 9 60 60 60 60 60 60 18 7 32 32 32 32
 32 32 32 32 9 9 9 9 9 9 9 79 79 60 60 60 60 60 60 60
 32 32 32 32 32 32 32 32 32 32 1 66 66 66 66 79 79 79 79 51
 60 60 60 19 19 32 32 32 32 32 32 32 32 32 32 36 66 66 66 66
 79 79 79 79 79 51 19 19 19 19 19 53 53 32 32 32 32 32 32 36
 36 36 66 66 66 79 79 79 79 79 19 19 19 19 19 19 53 53 53 53
 32 32 32 36 36 36 36 36 66 66 79 79 79 79 79 19 19 19 19 19
 19 53 53 53 53 53 53 20 20 36 36 36 36 36 66 79 79 79 79 19
 19 19 19 19 19 19 53 53 53 53 53 53 20 20 36 36 36 36 36 36
 35 35 35 35 35 19 19 19 19 19 19 53 53 53 53 53 20 20 20 36
 36 36 36 36 35 35 35 35 35 35 35 19 19 19 19 19 53 53 53 53
 53 20 20 20 36 20 36 36 36 35 35 35 35 35 35 35 35 35 19 19
 19 12 53 53 53 53 20 5 5 20 38 38 38 35 35 35 35 35 35 35
 35 35 35 35 12 12 12 62 62 62 62 62 5 5 5 38 38 38 35 35
 35 35 35 35 35 35 35 35 35 12 12 12 62 62 62 62 62 62 5 5
 38 38 38 35 35 35 35 35 35 35 35 35 35 35 12 12 62 62 62 62
 62 62 62 5 5 38 38 35 35 35 35 35 35 35 35 35 35 35 35 12
 12 62 62 62 62 62 62 62 5 38 40 40 9 35 35 35 35 35 35 35
 35 35 35 35 12 12 62 62 62 62 62 62 62 62 38 40 9 9 88 35
 35 35 35 35 35 35 35 35 34 12 12 62 62 62 62 62 62 62 30 30
 9 9 9 9 9 9 35 35 25 25 25 25 34 34 15 15 15 62 62 62
 30 30 30 30 30 9 9 9 9 9 9 9 25 25 25 25 25 34 34 15
 15 15 15 30 30 30 30 30 30 30 9 9 9 9 9 9 9 9 25 25
 25 25 34 34 15 15 15 15 30 30 30 30 30 30 30 9 9 9 9 9
 9 9 9 25 25 25 18 18 18 18 18 59 59 59 30 30 30 30 30 30
 9 9 9 9 9 9 9 9 9 18 18 18 18 18 18 7 7 59 59 59
 30 30 30 30 30 9 9 9 9 9 9 9 9 9 18 18 18 18 18 18
 7 7 59 59 59 59 30 30 30 9 9 9 9 9 9 9 9 9 9 18
 18 18 18 18 7 7 7 7 59 59 59 30 30 30 9 9 9 9 9 9
 9 9 9 9 60 18 18 18 18 7 7 7 7 59 59 59 32 30 30 9
 9 9 9 9 9 9 9 9 9 60 60 60 18 18 18 7 7 32 32 32
 32 32 32 32 9 9 9 9 9 9 9 9 4 51 60 60 60 60 60 43
 7 69 69 32 32 32 32 32 32 9 9 9 86 86 86 9 51 51 51 51
 51 51 51 60 19 32 69 69 69 32 32 32 32 32 32 86 86 86 86 86
 10 51 51 51 51 51 51 51 19 19 19 69 69 69 32 32 32 32 32 36
 36 36 66 66 10 10 10 51 51 51 51 51 19 19 19 19 69 69 69 32
 32 32 32 36 36 36 36 36 66 10 10 10 79 51 51 51 19 19 19 19
 19 53 53 53 53 53 32 36 36 36 36 36 36 36 10 10 10 51 51 51
 51 19 19 19 19 19 53 53 53 53 53 53 36 36 36 36 36 36 36 10
 10 51 51 51 51 19 19 19 19 19 19 53 53 53 53 53 53 20 36 36
 36 36 36 36 36 35 35 35 35 35 35 19 19 19 19 19 53 53 53 53
 53 20 20 36 36 36 36 36 36 36 35 35 35 35 35 35 35 19 19 19
 19 53 53 53 53 53 20 20 36 36 36 36 36 36 35 35 35 35 35 35
 35 35 35 19 19 19 53 53 53 53 53 20 38 38 36 38 38 38 35 35
 35 35 35 35 35 35 35 35 35 12 12 12 62 62 62 62 38 38 38 38
 38 38 38 35 35 35 35 35 35 35 35 35 35 35 12 12 12 62 62 62
 62 62 38 38 38 38 38 38 35 35 35 35 35 35 35 35 35 35 35 12
 12 62 62 62 62 62 62 38 38 38 38 38 38 35 35 35 35 35 35 35
 35 35 35 35 12 12 62 62 62 62 62 62 62 38 38 38 64 64 64 35
 35 35 35 35 35 35 35 35 35 12 62 62 62 62 62 62 62 62 38 38
 64 64 64 64 64 64 35 35 35 35 35 35 35 35 15 15 62 62 62 62
 62 62 62 30 30 64 64 9 9 9 64 64 64 25 25 25 23 23 15 15
 15 15 62 62 30 30 30 30 30 30 9 9 9 9 9 9 9 25 25 25
 23 23 23 15 15 15 15 15 30 30 30 30 30 30 30 9 9 9 9 9
 9 9 9 25 25 23 23 23 15 15 15 15 15 30 30 30 30 30 30 30
 9 9 9 9 9 9 9 9 25 23 23 23 23 18 18 15 15 59 30 30
 30 30 30 30 30 9 9 9 9 9 9 9 9 9 23 23 23 18 18 18
 13 13 13 30 30 30 30 30 30 30 9 9 9 9 9 9 9 9 9 9
 23 18 18 18 13 13 13 13 59 30 30 30 30 30 9 9 9 9 9 9
 9 9 9 9 18 18 18 18 18 13 13 13 13 59 59 30 30 30 30 9
 9 9 9 9 9 9 4 4 4 60 18 18 18 18 13 13 13 13 59 59
 59 30 30 30 9 9 9 9 9 9 4 4 4 4 51 60 60 18 43 43
 43 43 43 43 32 32 32 32 30 9 9 9 9 9 9 4 4 4 51 51
 51 51 43 43 43 43 69 69 69 32 32 32 32 32 9 24 86 86 86 86
 4 51 51 51 51 51 51 51 43 43 43 69 69 69 69 32 32 32 32 36
 24 24 86 86 86 86 51 51 51 51 51 51 51 19 19 69 69 69 69 69
 32 32 32 32 36 24 24 86 86 10 10 10 51 51 51 51 51 51 19 19
 19 69 69 69 69 69 32 32 36 36 36 36 36 10 10 10 10 51 51 51
 51 51 19 19 19 19 69 69 69 69 69 32 36 36 36 36 36 36 36 10