# vtk DataFile Version 2.0
Data set from ImportExport Version 6.5.141.ec284b7a5
ASCII

DATASET RECTILINEAR_GRID
DIMENSIONS 26 26 26
X_COORDINATES 26 float
-3.000000 3.000000 9.000000 15.000000 21.000000 27.000000 33.000000 39.000000 45.000000 51.000000 57.000000 63.000000 69.000000 75.000000 81.000000 87.000000 93.000000 99.000000 105.000000 111.000000 117.000000 
123.000000 129.000000 135.000000 141.000000 147.000000 
Y_COORDINATES 26 float
-3.000000 3.000000 9.000000 15.000000 21.000000 27.000000 33.000000 39.000000 45.000000 51.000000 57.000000 63.000000 69.000000 75.000000 81.000000 87.000000 93.000000 99.000000 105.000000 111.000000 117.000000 
123.000000 129.000000 135.000000 141.000000 147.000000 
Z_COORDINATES 26 float
-3.000000 3.000000 9.000000 15.000000 21.000000 27.000000 33.000000 39.000000 45.000000 51.000000 57.000000 63.000000 69.000000 75.000000 81.000000 87.000000 93.000000 99.000000 105.000000 111.000000 117.000000 
123.000000 129.000000 135.000000 141.000000 147.000000 
CELL_DATA 15625
SCALARS FeatureIds int 1
LOOKUP_TABLE default
 3 3 3 3 3 3 3 33 33 33 33 33 33 33 33 33 33 59 59 59
 59 59 59 3 3 3 3 3 3 3 3 3 33 33 33 33 33 33 33 33
 33 33 59 59 59 59 59 3 3 3 3 3 3 3 3 3 3 41 33 33
 33 33 33 33 33 33 33 2 59 59 59 59 3 3 3 3 3 3 3 3
 3 41 41 41 33 33 33 33 33 33 33 2 2 2 26 26 26 3 3 3
 3 3 3 3 27 41 41 41 41 41 33 30 30 33 33 2 2 2 2 2
 26 26 26 3 3 27 27 27 27 27 27 41 41 41 81 81 30 30 30 2
 2 2 2 2 2 2 2 52 52 52 27 27 27 27 27 27 41 41 81 81
 81 81 81 2 2 2 2 2 2 2 2 2 52 52 52 52 27 27 27 27
 27 27 81 81 81 81 81 81 2 2 2 2 2 2 2 2 2 52 52 52
 52 52 27 27 27 27 27 27 81 81 81 81 81 2 2 2 2 2 2 2
 2 2 52 52 52 52 52 27 27 27 27 27 66 66 66 66 66 66 2 2
 2 2 2 2 2 2 80 52 52 52 52 52 52 27 27 27 27 66 66 66
 66 66 66 2 2 2 2 2 2 2 80 80 80 52 52 22 22 22 27 27
 27 27 66 66 66 66 66 66 66 9 9 9 9 9 9 9 80 80 22 22
 22 22 22 22 27 27 66 66 66 66 66 66 66 60 9 9 9 9 9 9
 9 80 80 22 22 22 22 61 61 61 61 66 66 66 66 66 66 60 60 60
 9 9 9 9 9 9 9 9 22 22 22 61 61 61 61 61 72 72 72 72
 72 72 60 60 60 9 9 9 9 9 9 9 44 54 22 44 61 61 61 61
 61 72 72 72 72 72 72 60 60 60 60 9 9 9 9 9 9 44 54 44
 44 61 61 61 61 61 72 72 72 72 72 72 60 60 60 60 9 9 9 83
 83 83 44 54 44 44 61 61 61 61 61 72 72 72 72 72 72 72 60 60
 60 83 83 83 83 83 83 44 54 44 44 67 67 67 67 67 67 72 72 72
 90 90 90 90 90 83 83 83 83 83 83 83 83 44 44 44 67 67 67 67
 67 67 90 90 90 90 90 90 90 90 83 83 83 83 83 83 83 83 44 44
 44 67 67 67 67 67 67 90 90 90 90 90 90 90 90 83 83 83 83 83
 83 83 83 83 83 76 76 76 76 76 67 67 90 90 90 90 90 90 90 90
 83 83 83 83 83 83 83 83 83 83 3 3 76 76 76 76 76 90 90 90
 90 90 90 90 33 33 83 83 83 83 83 83 83 87 87 3 3 76 76 76
 76 76 90 90 90 33 33 33 33 33 33 83 83 83 83 83 83 87 87 87
 3 3 3 3 76 76 76 33 33 33 33 33 33 33 33 33 83 83 83 83
 83 83 87 87 87 3 76 76 76 76 76 76 31 31 31 31 31 31 33 33
 33 33 59 59 59 59 59 59 3 3 3 3 3 76 3 3 31 31 31 31
 31 31 31 31 33 33 89 59 59 59 59 59 59 3 3 3 3 3 3 3
 3 3 31 31 31 31 31 31 31 31 31 89 89 59 59 59 59 59 3 3
 3 3 3 3 56 56 41 41 31 31 31 31 31 31 31 89 89 89 26 26
 26 26 26 3 3 3 3 56 27 27 41 41 41 41 41 31 31 31 31 89
 89 2 2 26 26 26 26 26 52 52 27 27 27 27 27 27 41 41 41 81
 81 81 81 81 89 2 2 2 2 26 26 26 26 52 52 27 27 27 27 27
 27 41 41 81 81 81 81 81 81 2 2 2 2 2 2 2 55 52 52 52
 52 52 27 27 27 27 27 81 81 81 81 81 81 2 2 2 2 2 2 2
 2 55 52 52 52 52 52 27 27 27 27 27 81 81 81 81 81 81 2 2
 2 2 2 2 2 55 55 55 52 52 52 52 52 27 27 27 27 66 66 66
 66 66 66 2 2 2 2 2 2 29 29 80 55 52 52 52 52 52 27 27
 27 27 66 66 66 66 66 66 66 2 2 2 2 2 29 80 80 80 52 52
 22 22 22 27 27 27 27 66 66 66 66 66 66 66 9 9 9 9 9 29
 80 80 80 80 22 22 22 22 22 27 27 66 66 66 66 66 66 66 66 9
 9 9 9 9 9 80 80 80 22 22 22 22 22 22 61 27 66 66 66 66
 66 66 60 60 60 9 9 9 9 9 9 80 80 22 22 22 62 61 61 61
 61 66 66 66 66 66 60 60 60 60 60 9 9 9 9 9 9 44 44 44
 44 44 61 61 61 61 72 72 72 72 72 60 60 60 60 60 9 9 9 9
 9 44 44 44 44 44 44 61 61 61 61 72 72 72 72 72 60 60 60 60
 60 9 9 9 83 83 44 44 44 44 44 44 67 67 67 67 67 72 72 72
 72 72 60 60 60 60 83 83 83 83 83 44 44 44 44 44 67 67 67 67
 67 67 67 90 90 90 90 90 90 90 83 83 83 83 83 83 44 44 44 44
 44 67 67 67 67 67 67 67 90 90 90 90 90 90 90 83 83 83 83 83
 83 83 44 44 44 44 67 67 67 67 67 67 90 90 90 90 90 90 90 90
 83 83 83 83 83 83 83 83 44 44 76 76 76 76 67 67 67 90 90 90
 90 90 90 90 90 90 83 83 83 83 83 83 83 83 44 76 76 76 76 76
 76 76 90 90 90 90 90 90 90 90 90 83 83 83 83 83 83 87 87 87
 76 76 76 76 76 76 76 90 90 90 90 90 90 90 90 33 83 83 83 83
 83 83 87 87 87 76 76 76 76 76 76 76 90 90 90 90 33 33 33 33
 33 83 59 59 59 59 59 87 87 87 76 76 76 76 76 76 76 31 31 31
 31 31 31 31 33 33 89 59 59 59 59 59 59 59 3 76 76 76 76 76
 76 76 31 31 31 31 31 31 31 31 89 89 59 59 59 59 59 59 59 3
 3 56 56 56 56 56 56 31 31 31 31 31 31 31 31 89 89 89 59 26
 59 59 59 59 3 3 56 56 56 56 56 41 31 31 31 31 31 31 31 31
 89 89 89 26 26 26 26 26 26 51 56 56 56 56 17 17 41 41 41 31
 31 31 31 31 89 89 89 89 26 26 26 26 26 26 52 17 17 17 17 17
 17 41 41 14 81 81 81 81 89 89 89 89 45 26 26 26 26 26 52 52
 52 27 27 27 27 27 41 14 81 81 81 81 81 89 89 2 2 2 2 26
 26 55 55 52 52 52 52 27 27 27 27 27 81 81 81 81 81 81 81 2
 2 2 2 2 55 55 55 55 52 52 52 52 52 27 27 27 27 81 81 81
 81 81 81 81 2 2 2 2 29 55 55 55 55 52 52 52 52 52 27 27
 63 63 66 66 66 66 66 66 66 2 2 2 29 29 29 29 55 55 55 52
 52 52 52 27 27 63 63 66 66 66 66 66 66 66 2 2 2 29 29 29
 80 80 80 80 52 22 22 22 22 27 27 63 66 66 66 66 66 66 66 37
 9 29 29 29 29 80 80 80 80 22 22 22 22 22 27 27 66 66 66 66
 66 66 66 60 37 9 9 29 29 29 80 80 80 80 22 22 62 62 62 27
 66 66 66 66 66 66 66 60 60 60 60 9 9 9 29 80 80 80 80 22
 62 62 62 62 61 61 66 66 66 66 66 60 60 60 60 60 9 9 9 9
 80 80 80 44 44 44 44 44 61 61 67 67 72 72 72 72 60 60 60 60
 60 9 9 9 75 44 44 44 44 44 44 44 44 67 67 67 67 72 72 72
 72 60 60 60 60 60 60 75 75 44 44 44 44 44 44 44 44 67 67 67
 67 67 67 72 72 72 60 60 60 60 60 60 75 83 83 44 44 44 44 44
 44 67 67 67 67 67 67 67 90 90 90 90 90 90 90 60 83 83 83 83
 44 44 44 44 44 44 67 67 67 67 67 67 67 90 90 90 90 90 90 90
 90 83 83 83 83 44 44 44 44 44 44 67 67 67 67 67 67 7 90 90
 90 90 90 90 90 90 83 83 83 83 83 44 44 44 44 76 76 76 76 76
 67 67 90 90 90 90 90 90 90 90 90 83 83 83 83 83 83 44 44 44
 76 76 76 76 76 76 76 76 90 90 90 90 90 90 90 90 83 83 83 59
 59 59 87 87 87 76 76 76 76 76 76 76 76 90 90 90 90 90 90 90
 90 59 59 59 59 59 59 87 87 87 76 76 76 76 76 76 76 76 31 31
 31 31 31 90 90 90 59 59 59 59 59 59 59 87 87 76 76 76 76 76
 76 76 31 31 31 31 31 31 31 89 89 89 59 59 59 59 59 59 59 59
 76 76 76 76 76 76 76 31 31 31 31 31 31 31 89 89 89 59 59 59
 59 59 59 59 59 56 56 56 56 56 56 56 31 31 31 31 31 31 31 89
 89 89 89 26 26 26 59 59 59 59 17 17 56 56 56 17 17 14 31 31
 31 31 31 31 89 89 89 89 26 26 26 26 26 26 51 17 17 17 56 17
 17 14 14 14 31 31 31 31 89 89 89 89 89 26 26 26 26 26 26 51
 17 17 17 17 17 17 14 14 14 81 31 31 89 89 89 89 89 45 26 26
 26 26 26 51 51 17 17 17 17 17 17 14 14 14 81 81 81 81 89 89
 89 89 45 26 26 26 55 55 55 51 52 52 17 17 17 17 14 81 81 81
 81 81 81 89 89 89 89 89 29 55 55 55 55 55 52 52 52 52 27 63
 63 63 81 81 81 81 81 81 89 89 89 89 29 29 55 55 55 55 55 52
 52 52 52 27 63 63 63 63 66 66 66 66 66 66 2 2 2 29 29 29
 55 55 55 55 52 52 52 52 27 63 63 63 66 66 66 66 66 66 66 37
 37 29 29 29 29 80 80 80 55 52 22 22 22 22 27 95 95 95 66 66
 66 66 66 37 37 37 29 29 29 29 80 80 80 80 22 62 62 62 62 27
 95 95 95 66 66 66 66 66 60 37 37 29 29 29 29 80 80 80 80 22
 62 62 62 62 95 95 95 66 66 66 66 66 60 60 60 75 75 75 29 29
 80 80 80 80 22 62 62 62 62 62 95 95 95 66 66 66 60 60 60 60
 75 75 75 75 75 75 80 44 44 44 44 44 62 62 67 67 67 72 10 10
 97 60 60 60 60 60 75 75 75 75 44 44 44 44 44 44 44 44 67 67
 67 67 72 97 10 10 60 60 60 60 60 75 75 75 75 44 44 44 44 44
 44 44 67 67 67 67 67 7 7 7 90 90 60 60 60 75 75 75 75 75
 44 44 44 44 44 44 67 67 67 67 67 67 7 7 7 90 90 90 90 90
 75 75 75 75 83 44 44 44 44 44 44 67 67 67 67 67 67 7 7 90
 90 90 90 90 90 32 32 83 83 83 44 44 44 44 44 44 67 67 67 67
 67 67 7 7 90 90 90 90 90 90 32 32 83 83 83 44 44 44 44 44
 44 76 76 76 76 76 7 7 7 90 90 90 90 90 90 32 32 83 59 59
 59 44 44 44 44 76 76 76 76 76 76 7 7 7 90 90 90 90 90 90
 32 32 59 59 59 59 59 59 87 87 76 76 76 76 76 76 76 7 7 90
 90 90 90 90 90 90 59 59 59 59 59 59 59 87 87 76 76 76 76 76
 76 76 7 31 31 31 31 31 31 31 31 59 59 59 59 59 59 59 87 87
 76 76 76 76 76 76 76 31 31 31 31 31 31 31 89 89 89 59 59 59
 59 59 59 5 5 76 76 76 76 76 76 76 31 31 31 31 31 31 31 89
 89 89 89 59 59 59 59 59 5 5 51 17 17 56 17 17 17 31 31 31
 31 31 31 89 89 89 89 89 26 26 26 26 59 5 5 51 17 17 56 17
 17 17 14 31 31 31 31 31 89 89 89 89 89 26 26 26 26 26 5 51
 51 17 17 17 17 17 14 14 14 31 31 31 89 89 89 89 89 45 26 26
 26 26 26 51 51 51 17 17 17 17 17 14 14 14 14 31 31 89 89 89
 89 45 45 45 26 26 26 26 51 51 51 17 17 17 17 17 14 14 14 81
 81 81 89 89 89 89 45 45 45 26 55 55 55 51 51 51 17 17 17 17
 17 14 14 81 81 81 81 89 89 89 89 89 89 45 55 55 55 55 55 51
 52 17 17 17 17 63 63 95 95 95 95 81 89 89 89 89 89 29 29 55
 55 55 55 55 55 52 52 52 27 63 63 63 95 95 95 95 66 66 42 37
 37 29 29 29 29 55 55 55 55 55 52 52 52 27 63 63 95 95 95 95
 95 66 66 37 37 37 29 29 29 29 29 55 55 55 55 22 22 22 22 95
 95 95 95 95 95 95 95 95 37 37 37 29 29 29 29 29 80 80 80 80
 62 62 62 62 95 95 95 95 95 95 95 95 95 37 37 75 75 29 29 29
 29 80 80 80 80 62 62 62 62 95 95 95 95 95 95 95 95 60 60 75
 75 75 75 75 75 75 80 80 80 80 62 62 62 62 95 95 95 95 10 97
 97 97 60 60 75 75 75 75 75 75 75 80 44 44 44 44 44 62 67 67
 95 95 95 10 10 97 97 60 60 75 75 75 75 75 75 75 44 44 44 44
 44 44 44 67 67 67 7 7 97 10 10 10 60 8 75 75 75 75 75 75
 44 44 44 44 44 44 44 67 67 67 67 7 7 7 7 7 8 8 8 8
 75 75 75 75 75 44 44 44 44 44 44 44 67 67 67 67 7 7 7 7
 7 8 8 8 8 8 75 75 75 75 44 44 44 44 44 44 67 67 67 67
 67 7 7 7 7 7 90 8 8 8 32 32 75 73 73 44 44 44 44 44
 44 67 67 67 67 67 7 7 7 7 90 90 90 8 32 32 32 73 73 73
 73 44 44 44 44 44 76 76 76 76 7 7 7 7 7 90 90 90 90 32
 32 32 73 73 73 73 44 44 44 44 76 76 76 76 76 76 7 7 7 7
 90 90 90 90 32 32 32 59 59 59 59 59 59 44 44 76 76 76 76 76
 76 7 7 7 7 90 90 90 90 32 32 32 59 59 59 59 59 59 59 87
 76 76 76 76 76 76 76 7 7 31 31 31 31 31 31 89 59 59 59 59
 59 59 59 59 59 76 76 76 76 76 76 76 31 31 31 31 31 31 89 89
 89 89 59 59 59 59 59 59 5 5 51 76 76 76 76 17 17 31 31 31
 31 31 31 89 89 89 89 89 26 59 59 59 5 5 5 51 51 17 17 17
 17 17 31 31 31 31 31 31 89 89 89 89 89 26 26 26 26 5 5 5
 51 51 17 17 17 17 17 17 31 31 31 31 89 89 89 89 89 89 26 26
 26 26 26 5 51 51 51 17 17 17 17 17 14 14 31 31 89 89 89 89
 89 89 45 26 26 26 26 26 51 51 51 51 17 17 17 17 17 14 14 78
 78 89 89 89 89 89 45 45 45 26 26 26 77 51 51 51 51 17 17 17
 17 17 50 78 78 78 78 89 89 89 89 45 45 45 45 55 55 77 77 51
 51 51 17 17 17 17 17 50 78 78 78 78 89 89 89 89 89 45 45 55
 55 55 55 77 77 77 51 17 17 17 95 82 82 95 95 95 95 89 89 89
 89 89 29 29 55 55 55 55 55 77 77 52 17 17 95 95 95 95 95 95
 95 95 42 42 37 37 29 29 29 29 55 55 55 55 55 77 52 52 95 95
 95 95 95 95 95 95 95 95 37 37 37 29 29 29 29 55 55 55 55 55
 22 22 95 95 95 95 95 95 95 95 95 95 95 37 37 37 37 29 29 29
 29 55 55 55 55 62 62 62 95 95 95 95 95 95 95 95 95 95 37 37
 37 75 75 29 29 29 55 55 55 55 62 62 62 95 95 95 95 95 95 95
 95 95 95 75 75 75 75 75 75 75 75 80 55 55 44 44 62 94 94 95
 95 95 95 10 97 97 97 75 75 75 75 75 75 75 75 75 75 44 44 44
 44 44 88 88 95 95 95 97 97 10 97 97 75 75 75 75 75 75 75 75
 75 44 44 44 44 44 44 44 67 67 67 7 7 97 97 10 10 8 8 75
 75 75 75 75 75 75 44 44 44 44 44 44 67 67 67 7 7 7 7 7
 7 8 8 8 8 75 75 75 75 75 44 44 44 44 44 44 44 67 67 67
 7 7 7 7 7 7 8 8 8 8 8 75 75 75 75 44 44 44 44 44
 44 44 67 67 67 7 7 7 7 7 7 8 8 8 8 8 75 73 73 73
 73 44 44 44 44 44 67 67 67 67 7 7 7 7 7 7 8 8 8 32
 32 32 73 73 73 73 73 44 44 44 44 76 76 76 7 7 7 7 7 7
 7 8 8 8 32 32 32 73 73 73 73 73 73 44 44 76 76 76 76 76
 7 7 7 7 7 7 8 8 8 32 32 32 73 73 73 59 59 59 44 44
 76 76 76 76 76 7 7 7 7 7 7 90 90 8 32 32 32 59 59 59
 59 59 59 59 44 76 76 76 76 76 76 7 7 7 7 31 31 31 89 89
 89 89 59 59 59 59 59 59 59 59 58 58 58 58 58 58 58 31 31 31
 31 31 89 89 89 89 89 89 59 59 59 59 59 5 5 51 51 58 58 58
 58 58 31 31 31 31 31 89 89 89 89 89 89 26 26 59 59 59 5 5
 51 51 17 17 17 17 17 31 31 31 31 89 89 89 89 89 89 89 26 26
 26 26 26 5 51 51 51 17 17 17 17 17 17 78 31 31 89 89 89 89
 89 89 89 26 26 26 26 26 51 51 51 51 17 17 17 17 17 17 78 78
 89 89 89 89 89 89 89 89 26 26 26 26 26 51 51 51 51 17 17 17
 17 17 50 78 78 78 89 89 89 89 89 89 45 45 26 26 77 77 77 51
 51 51 17 17 17 17 50 50 78 78 78 78 89 89 89 89 89 45 45 89
 55 77 77 77 77 51 51 17 17 17 17 50 50 78 78 78 78 89 89 89
 89 89 89 89 55 55 55 77 77 77 77 51 17 17 17 82 82 82 82 78
 78 78 42 42 89 89 89 89 89 55 55 55 55 77 77 77 51 17 17 95
 95 82 82 82 95 95 95 42 42 42 89 89 29 29 55 55 55 55 55 77
 77 51 95 95 95 95 95 95 95 95 95 95 95 42 37 37 29 29 29 55
 55 55 55 55 55 77 95 95 95 95 95 95 95 95 95 95 95 95 42 37
 37 75 75 29 29 55 55 55 55 55 88 94 94 94 95 95 95 95 95 95
 95 95 95 75 75 75 75 75 75 75 75 55 55 55 55 88 94 94 94 94
 95 95 95 95 95 95 95 95 75 75 75 75 75 75 75 75 75 75 55 44
 88 88 94 94 94 95 95 95 95 10 97 97 75 75 75 75 75 75 75 75
 75 75 75 44 44 88 88 88 88 94 95 95 95 97 10 10 10 75 75 75
 75 75 75 75 75 75 75 44 44 44 44 88 88 88 67 7 7 7 7 97
 10 8 8 8 75 75 75 75 75 75 75 44 44 44 44 44 44 67 67 67
 7 7 7 7 7 7 8 8 8 8 75 75 75 75 75 75 44 44 44 44
 44 44 67 67 7 7 7 7 7 7 7 8 8 8 8 8 75 75 75 75
 73 44 44 44 44 44 44 67 67 7 7 7 7 7 7 7 8 8 8 8
 8 75 73 73 73 73 73 44 44 44 44 44 67 67 7 7 7 7 7 7
 7 8 8 8 8 32 73 73 73 73 73 73 73 44 44 44 58 58 58 7
 7 7 7 7 7 7 8 8 8 32 32 32 73 73 73 73 73 73 44 44
 58 58 58 58 58 7 7 7 7 7 7 8 8 8 32 32 32 73 73 73
 73 73 73 73 44 58 58 58 58 58 7 7 7 7 7 7 8 8 89 89
 32 32 73 59 59 59 59 59 59 59 58 58 58 58 58 7 7 7 7 7
 7 31 89 89 89 89 89 59 59 59 59 59 59 59 59 92 92 58 58 58
 58 58 93 93 31 31 89 89 89 89 89 89 89 59 59 59 59 59 5 92
 51 51 58 58 58 58 58 93 93 93 89 89 89 89 89 89 89 89 89 26
 59 59 59 5 5 51 51 51 51 17 17 17 17 89 89 89 89 89 89 89
 89 89 89 89 26 26 26 26 5 51 51 51 51 51 17 17 17 17 78 89
 89 89 89 89 89 89 89 89 89 26 26 26 26 51 51 51 51 51 51 17
 17 17 50 78 78 89 89 89 89 89 89 89 89 89 26 26 26 51 51 51
 51 51 51 51 17 17 50 50 78 78 78 89 89 89 89 89 89 89 89 89
 26 77 77 77 51 51 51 51 51 17 17 50 50 78 78 78 78 89 89 89
 89 89 89 89 89 77 77 77 77 77 51 51 51 51 17 50 50 50 78 78
 78 78 89 89 89 89 89 89 89 55 55 77 77 77 77 77 51 51 51 95
 82 82 82 82 78 78 78 42 42 89 89 89 85 85 55 55 55 77 77 77
 77 51 51 95 95 95 82 82 82 95 95 95 42 42 42 85 85 85 85 55
 55 55 55 77 77 77 51 95 95 95 95 95 95 95 95 95 95 42 42 42
 85 85 85 85 55 55 55 55 55 55 77 95 95 95 95 95 95 95 95 95
 95 95 95 42 75 75 75 75 75 55 55 55 55 55 55 94 94 94 94 94
 95 95 95 95 95 95 95 95 75 75 75 75 75 75 75 75 55 55 55 55
 88 94 94 94 94 95 95 95 95 95 95 95 95 75 75 75 75 75 75 75
 75 75 75 20 20 88 88 94 94 94 95 95 95 95 95 95 95 75 75 75
 75 75 75 75 75 75 75 75 20 88 88 88 88 88 94 95 95 95 95 95
 10 10 75 75 75 75 75 75 75 75 75 75 44 44 88 88 88 88 88 7
 7 7 7 7 7 7 8 8 8 75 75 75 75 75 75 75 75 44 44 44
 44 44 88 88 7 7 7 7 7 7 7 8 8 8 8 75 75 75 75 75
 75 75 44 44 44 44 44 67 67 7 7 7 7 7 7 7 8 8 8 8
 8 75 75 75 73 73 73 44 44 44 44 44 67 67 7 7 7 7 7 7
 7 8 8 8 8 8 8 73 73 73 73 73 73 44 44 44 44 58 7 7
 7 7 7 7 7 7 8 8 8 8 8 73 73 73 73 73 73 73 44 44
 44 58 58 58 7 7 7 7 7 7 7 8 8 8 8 8 73 73 73 73
 73 73 73 73 44 92 58 58 58 58 7 7 7 7 7 7 47 8 8 8
 32 73 73 73 73 73 73 73 73 92 92 58 58 58 58 7 7 7 7 7
 47 47 47 89 89 89 73 73 73 73 73 73 73 73 92 92 92 58 58 58
 58 7 7 7 7 47 47 47 89 89 89 89 89 59 59 59 59 59 59 92
 92 92 92 58 58 58 58 93 93 93 38 38 38 89 89 89 89 89 89 59
 74 74 74 74 92 92 92 92 58 58 58 93 93 93 93 38 38 38 89 89
 89 89 89 89 74 74 74 74 74 74 51 51 51 51 51 17 17 93 93 93
 38 38 89 89 89 89 89 89 89 89 74 74 74 74 51 51 51 51 51 51
 17 17 93 93 93 38 89 89 89 89 89 89 89 89 89 74 26 74 51 51
 51 51 51 51 51 17 17 50 78 78 89 89 89 89 89 89 89 89 89 89
 26 77 51 51 51 51 51 51 51 51 17 50 50 78 78 78 89 12 12 89
 89 89 89 89 89 26 77 77 77 51 51 51 51 51 51 17 50 50 78 78
 78 78 89 12 89 89 89 89 89 89 77 77 77 77 77 51 51 51 51 51
 50 50 50 78 78 78 78 89 89 89 89 89 85 85 85 77 77 77 77 77
 77 51 51 51 95 95 82 82 82 78 78 78 42 42 85 85 85 85 85 85
 77 77 77 77 77 77 51 51 95 95 95 82 82 82 95 95 95 42 42 85
 85 85 85 85 85 55 55 77 77 77 77 51 95 95 95 95 95 95 95 95
 95 95 42 42 85 85 85 85 85 85 55 55 55 55 77 77 95 95 95 95
 95 95 95 95 95 95 95 95 42 85 85 85 85 85 85 55 55 55 55 77
 94 94 94 94 95 95 95 95 95 95 95 95 95 75 75 75 75 75 75 75
 75 75 20 20 20 88 94 94 94 94 95 95 95 95 95 95 95 75 75 75
 75 75 75 75 75 75 20 20 20 20 88 88 94 94 95 95 95 95 95 95
 95 95 75 75 75 75 75 75 75 75 75 20 20 20 20 88 88 88 88 95
 95 95 95 95 95 95 75 75 75 75 75 75 75 75 75 75 20 20 20 20
 88 88 88 88 36 36 95 7 7 7 7 8 8 8 75 75 75 75 75 75
 75 20 20 20 20 44 88 88 88 36 7 7 7 7 7 7 8 8 8 8
 75 75 75 75 75 75 20 20 20 20 44 44 88 7 7 7 7 7 7 7
 7 8 8 8 8 8 75 75 75 73 73 73 44 44 44 44 44 7 7 7
 7 7 7 7 7 7 8 8 8 8 8 8 73 73 73 73 73 73 44 44
 44 92 58 7 7 7 7 7 7 7 7 8 8 8 8 8 73 73 73 73
 73 73 73 73 44 92 92 58 58 7 7 7 7 7 7 7 8 8 8 8
 8 73 73 73 73 73 73 73 73 44 92 92 58 58 58 7 7 7 7 7
 47 47 47 8 8 8 73 73 73 73 73 73 73 73 92 92 92 58 58 58
 7 7 7 7 7 47 47 47 47 89 89 73 73 73 73 73 73 73 73 92
 92 92 92 58 58 58 7 7 7 47 47 47 47 89 89 89 89 89 73 73
 59 59 59 92 92 92 92 92 92 58 58 93 93 93 93 38 38 38 89 89
 89 89 89 74 74 74 74 74 74 92 92 92 92 92 58 58 93 93 93 93
 38 38 38 89 89 89 89 89 89 74 74 74 74 74 74 51 51 51 51 51
 51 93 93 93 93 38 38 38 89 89 89 89 89 89 74 74 74 74 74 51
 51 51 51 51 51 51 93 93 93 93 79 79 89 89 89 89 89 89 89 74
 74 74 74 51 51 51 51 51 51 51 51 64 93 93 79 79 79 12 12 89
 89 89 89 89 89 74 74 74 51 51 51 51 51 51 51 51 64 64 64 78
 79 89 12 12 12 89 89 89 89 89 65 65 77 77 51 51 51 51 51 51
 64 64 64 64 78 78 89 12 12 12 89 89 89 85 65 65 65 77 77 77
 51 51 51 51 51 64 64 64 64 78 78 78 12 89 89 85 85 85 85 85
 65 65 65 77 77 77 51 51 51 95 95 64 64 64 78 78 78 12 85 85
 85 85 85 85 85 65 65 65 77 77 77 51 51 95 95 95 95 82 95 95
 95 95 42 42 85 85 85 85 85 85 85 65 65 77 77 77 4 95 95 95
 95 95 95 95 95 95 95 95 85 85 85 85 85 85 85 85 55 55 55 77
 20 95 95 95 95 95 95 95 95 95 95 95 95 85 85 85 85 85 85 85
 85 85 20 20 20 20 20 94 95 95 95 95 95 95 95 95 95 95 75 75
 75 75 75 75 75 75 20 20 20 20 20 20 94 94 95 95 95 95 95 95
 95 95 95 75 75 75 75 75 75 75 75 20 20 20 20 20 20 94 94 95
 95 95 95 95 95 95 95 75 75 75 75 75 75 75 75 75 20 20 20 20
 20 20 88 36 36 36 36 36 95 95 95 75 75 75 75 75 75 75 75 75
 75 20 20 20 20 20 20 88 36 36 36 36 36 36 7 7 8 8 8 75
 75 75 75 75 75 75 20 20 20 20 20 20 88 36 36 36 36 7 7 7
 7 8 8 8 8 75 75 75 75 75 75 20 20 20 20 20 20 36 36 36
 36 36 7 7 7 7 8 8 8 8 8 8 75 73 73 73 73 20 20 20
 44 92 7 7 7 7 7 7 7 7 7 8 8 8 8 8 8 73 73 73
 73 73 73 73 20 92 92 58 7 7 7 7 7 7 7 7 8 8 8 8
 8 8 73 73 73 73 73 73 73 44 92 92 39 39 7 7 7 7 7 7
 7 47 8 8 8 8 73 73 73 73 73 73 73 73 44 92 92 39 39 39
 7 7 7 7 7 47 47 47 47 8 8 73 73 73 73 73 73 73 73 92
 92 92 92 39 39 7 7 7 7 47 47 47 47 47 89 89 73 73 73 73
 73 74 74 74 92 92 92 92 39 39 7 7 7 7 47 47 47 47 47 89
 89 89 89 74 74 74 74 74 74 92 92 92 92 92 92 92 93 93 93 93
 93 38 38 89 89 89 89 74 74 74 74 74 74 74 92 92 92 92 92 92
 92 93 93 93 93 93 38 38 89 89 89 89 89 74 74 74 74 74 74 74
 92 92 92 92 92 93 93 93 93 93 93 79 79 89 89 89 89 89 74 74
 74 74 74 74 74 51 51 51 51 51 51 93 93 93 93 79 79 79 89 89
 89 89 89 74 74 74 74 74 74 74 51 51 51 51 51 51 64 64 93 79
 79 79 79 12 89 89 89 89 89 74 74 74 74 74 51 51 51 51 51 51
 64 64 64 64 79 79 79 12 12 12 89 89 89 89 65 65 65 65 65 51
 51 51 51 51 64 64 64 64 64 64 79 79 12 12 12 89 85 85 85 65
 65 65 65 65 77 51 51 51 51 64 64 64 64 64 64 78 78 12 12 85
 85 85 85 85 85 65 65 65 65 65 77 4 4 4 64 64 64 64 64 64
 64 64 12 85 85 85 85 85 85 85 65 65 65 65 77 4 4 4 4 95
 95 64 64 64 95 95 95 85 85 85 85 85 85 85 85 85 65 65 65 65
 4 4 4 95 95 95 95 95 95 95 95 95 49 85 85 85 85 85 85 85
 85 65 65 65 65 4 4 4 95 95 95 95 95 95 95 95 49 49 85 85
 85 85 85 85 85 85 85 20 20 20 20 20 20 95 95 95 95 95 95 95
 95 49 49 49 85 85 85 85 85 85 85 20 20 20 20 20 20 20 95 95
 95 95 95 95 95 95 49 49 49 75 75 75 75 75 75 20 20 20 20 20
 20 20 20 36 36 36 95 95 95 95 95 49 34 49 75 75 75 75 75 75
 20 20 20 20 20 20 20 20 36 36 36 36 36 36 95 95 34 34 34 75
 75 75 1 75 75 20 20 20 20 20 20 20 20 36 36 36 36 36 36 7
 34 34 34 34 34 75 75 75 75 75 20 20 20 20 20 20 20 36 36 36
 36 36 36 7 7 7 34 34 34 34 75 75 75 75 75 20 20 20 20 20
 20 20 36 36 36 36 36 36 7 7 7 8 8 8 8 8 8 73 73 73
 73 20 20 20 20 20 92 36 36 36 36 36 7 7 7 7 8 8 8 8
 8 8 73 73 73 73 73 20 20 20 92 92 92 39 7 7 7 7 7 7
 7 8 8 8 8 8 8 73 73 73 73 73 73 73 20 92 92 92 39 7
 7 7 7 7 7 47 47 8 8 8 8 8 73 73 73 73 73 73 73 92
 92 92 92 39 39 7 7 7 7 7 47 47 47 47 8 8 73 73 73 73
 73 74 74 74 92 92 92 92 39 39 7 7 7 7 47 47 47 47 47 47
 89 53 73 74 74 74 74 74 74 92 92 92 92 92 39 39 7 7 93 93
 47 47 47 47 89 89 89 74 74 74 74 74 74 74 92 92 92 92 92 92
 92 93 93 93 93 93 93 38 89 89 89 89 74 74 74 74 74 74 74 74
 92 92 92 92 92 93 93 93 93 93 93 93 79 89 89 89 89 74 74 74
 74 74 74 74 74 74 74 92 92 92 93 93 93 93 93 93 79 79 79 89
 89 89 74 74 74 74 74 74 74 74 68 68 68 68 68 93 93 93 93 93
 79 79 79 79 89 89 89 74 74 74 74 74 74 74 74 68 68 68 68 68
 64 64 93 93 79 79 79 79 79 89 89 89 89 74 74 74 74 74 74 74
 68 68 68 68 64 64 64 64 64 79 79 79 79 12 89 89 89 85 85 65
 65 65 65 65 51 68 68 68 68 64 64 64 64 64 64 79 79 12 12 85
 85 85 85 85 65 65 65 65 65 65 68 68 68 4 64 64 64 64 64 64
 79 79 12 85 85 85 85 85 85 65 65 65 65 65 65 4 4 4 4 4
 64 64 64 64 64 64 64 85 85 85 85 85 85 85 85 65 65 65 65 65
 4 4 4 4 4 64 64 64 64 64 64 85 85 85 85 85 85 85 85 85
 85 65 65 65 65 4 4 4 4 4 95 95 95 95 95 95 49 49 85 85
 85 85 85 85 85 85 65 65 65 65 4 4 4 4 4 95 95 95 95 95
 49 49 49 49 85 85 85 85 85 85 85 65 20 20 20 20 20 4 4 95
 95 95 95 95 95 49 49 49 49 49 85 85 85 85 85 85 20 20 20 20
 20 20 20 36 36 95 95 95 95 95 49 49 49 49 49 49 75 75 75 75
 20 20 20 20 20 20 20 20 36 36 36 36 95 71 95 49 49 49 49 49
 75 1 1 1 75 20 20 20 20 20 20 20 20 36 36 36 36 36 36 36
 34 34 34 34 34 34 1 1 1 75 20 20 20 20 20 20 20 20 36 36
 36 36 36 36 34 34 34 34 34 34 34 1 1 1 75 20 20 20 20 20
 20 20 20 36 36 36 36 36 36 7 34 34 34 34 34 34 34 75 75 75
 20 20 20 20 20 20 20 36 36 36 36 36 36 7 7 7 34 34 34 34
 34 34 34 73 73 20 20 20 20 20 20 20 36 36 36 36 36 36 7 7
 7 34 34 34 34 34 34 73 73 73 73 20 20 20 20 92 92 36 36 36
 36 7 7 7 7 7 69 8 8 8 8 53 73 73 73 73 73 74 74 20
 92 92 92 39 7 7 7 7 7 7 69 69 69 8 8 8 53 53 73 73
 74 74 74 74 74 92 92 92 39 39 7 7 7 7 7 47 47 47 47 8
 53 53 53 74 74 74 74 74 74 74 92 92 92 92 39 7 7 7 7 7
 47 47 47 47 47 53 53 53 74 74 74 74 74 74 74 92 92 92 92 39
 39 93 93 93 93 93 47 47 47 89 89 53 53 74 74 74 74 74 74 74
 74 92 92 92 92 93 93 93 93 93 93 93 93 6 89 89 74 74 74 74
 74 74 74 74 74 74 74 92 92 21 93 93 93 93 93 93 93 79 79 89
 89 89 74 74 74 74 74 74 74 74 74 74 92 68 68 93 93 93 93 93
 93 79 79 79 89 89 89 74 74 74 74 74 74 74 74 68 68 68 68 68
 93 93 93 93 93 79 79 79 79 89 89 89 74 74 74 74 74 74 74 74
 68 68 68 68 68 64 64 64 93 79 79 79 79 79 89 89 89 74 74 74
 74 74 74 74 74 68 68 68 68 68 64 64 64 64 79 79 79 79 79 89
 89 89 74 74 74 74 65 74 74 68 68 68 68 68 4 64 64 64 64 64
 79 79 79 79 85 85 85 85 85 65 65 65 65 65 68 68 68 68 4 4
 64 64 64 64 64 64 99 99 85 85 85 85 85 85 65 65 65 65 65 65
 4 4 4 4 4 64 64 64 64 64 64 99 85 85 85 85 85 85 85 85
 65 65 65 65 65 4 4 4 4 4 4 64 64 64 64 64 49 85 85 85
 85 85 85 85 85 85 65 65 65 65 4 4 4 4 4 4 4 95 95 95
 49 49 49 49 85 85 85 85 85 85 85 65 65 65 65 4 4 4 4 4
 4 4 95 95 95 49 49 49 49 49 85 85 85 85 85 85 85 20 20 20
 4 4 4 4 4 4 95 95 95 95 49 49 49 49 49 49 85 85 85 85
 85 20 20 20 20 20 20 4 4 4 4 98 95 71 98 49 49 49 49 49
 49 75 75 85 85 20 20 20 20 20 20 20 20 36 36 36 71 71 71 71
 49 49 49 49 49 49 1 1 1 20 20 20 20 20 20 20 20 20 36 36
 36 36 71 71 71 34 34 34 34 34 34 1 1 1 1 20 20 20 20 20
 20 20 20 36 36 36 36 36 71 34 34 34 34 34 34 34 34 1 1 1
 20 20 20 20 20 20 20 20 36 36 36 36 36 36 34 34 34 34 34 34
 34 34 75 1 20 20 20 20 20 20 20 20 36 36 36 36 36 36 36 34
 34 34 34 34 34 34 34 34 1 20 20 20 20 20 20 20 20 36 36 36
 36 36 36 7 7 69 34 34 34 34 34 34 34 73 73 23 23 20 20 20
 92 92 36 36 36 36 36 7 7 69 69 69 69 69 34 34 53 53 53 74
 74 74 74 74 74 92 92 92 39 16 36 7 7 7 69 69 69 69 69 69
 53 53 53 53 74 74 74 74 74 74 92 92 92 39 39 7 7 7 7 69
 69 69 69 6 6 53 53 53 53 74 74 74 74 74 74 92 92 92 92 39
 70 7 7 93 93 69 69 6 6 6 53 53 53 53 74 74 74 74 74 74
 74 92 92 92 39 70 93 93 93 93 93 6 6 6 6 53 53 53 53 74
 74 74 74 74 74 74 92 92 92 70 21 93 93 93 93 93 93 6 6 6
 53 53 53 74 74 74 74 74 74 74 74 74 92 21 21 21 93 93 93 93
 93 93 79 6 6 53 53 74 74 74 74 74 74 74 74 74 74 74 21 21
 21 93 93 93 93 93 79 79 79 89 89 74 74 74 74 74 74 74 74 74
 68 68 68 68 68 21 93 93 93 93 79 79 79 79 89 89 74 74 74 74
 74 74 74 74 74 68 68 68 68 68 64 64 64 99 79 79 79 79 79 40
 40 40 74 74 74 74 74 74 74 68 68 68 68 68 68 64 64 64 64 99
 99 99 79 40 40 40 40 19 74 74 74 74 74 74 68 68 68 68 68 4
 4 64 64 64 99 99 99 99 40 40 40 40 40 85 65 65 65 65 65 68
 68 68 68 4 4 4 64 64 64 64 99 99 99 40 40 40 40 85 85 85
 65 65 65 65 68 4 4 4 4 4 4 64 64 64 64 99 99 99 40 40
 40 85 85 85 85 65 65 65 65 68 4 4 4 4 4 4 4 64 64 99
 99 99 99 85 85 85 85 85 85 85 85 65 65 65 4 4 4 4 4 4
 4 4 4 98 99 49 49 49 49 85 85 85 85 85 85 85 65 65 65 4
 4 4 4 4 4 4 4 98 98 98 49 49 49 49 49 85 85 85 85 85
 85 85 20 20 20 4 4 4 4 4 4 98 98 98 98 49 49 49 49 49
 49 85 85 85 85 85 20 20 20 20 20 20 4 4 4 98 98 98 98 98
 98 49 49 49 49 49 85 85 85 85 20 20 20 20 20 20 20 4 4 71
 71 71 71 71 71 71 49 49 49 49 49 1 1 1 20 20 20 20 20 20
 20 20 20 36 36 71 71 71 71 71 34 34 34 34 34 34 34 1 1 20
 20 20 20 20 20 20 20 20 36 36 36 71 71 71 71 34 34 34 34 34
 34 34 1 1 20 20 20 20 20 20 20 20 36 36 36 36 36 36 71 71
 34 34 34 34 34 34 34 34 1 23 23 23 23 20 20 20 86 16 16 36
 16 16 16 71 34 34 34 34 34 34 34 34 34 23 23 23 23 23 23 23
 20 86 16 16 16 16 16 16 16 69 69 34 34 34 34 34 34 34 53 23
 23 23 23 23 23 92 92 16 16 16 16 16 16 16 69 69 69 69 34 34
 34 53 53 53 74 74 23 23 23 23 92 92 16 16 16 16 16 16 69 69
 69 69 69 69 6 53 53 53 53 74 74 74 74 74 74 74 92 92 16 16
 16 16 16 6 6 69 69 69 6 6 53 53 53 53 74 74 74 74 74 74
 74 92 92 70 70 70 70 16 6 6 6 6 6 6 6 53 53 53 53 74
 74 74 74 74 74 74 92 92 70 70 70 70 93 93 93 6 6 6 6 6
 6 53 53 53 74 74 74 74 74 74 74 74 70 70 70 21 21 93 93 93
 6 6 6 6 6 6 53 53 74 74 74 74 74 74 74 74 74 74 21 21
 21 21 93 93 93 93 93 6 6 6 6 74 74 74 74 74 74 74 74 74
 74 74 74 21 21 21 21 93 93 93 93 79 79 79 6 6 74 74 74 74
 74 74 74 74 74 74 74 68 68 21 21 21 99 99 99 99 99 99 99 40
 40 19 74 74 74 74 74 74 74 74 68 68 68 68 4 21 99 99 99 99
 99 99 99 99 40 40 19 19 19 74 74 74 74 74 74 68 68 68 68 4
 4 4 99 99 99 99 99 99 40 40 40 19 19 19 74 74 74 74 74 74
 68 68 68 4 4 4 4 99 99 99 99 99 99 40 40 40 40 40 19 74
 74 65 65 65 68 68 4 4 4 4 4 4 99 99 99 99 99 99 40 40
 40 40 40 40 85 65 65 65 65 68 4 4 4 4 4 4 4 99 99 99
 99 99 99 40 40 40 40 40 85 85 85 65 65 65 4 4 4 4 4 4
 4 4 4 99 99 99 99 99 40 40 40 40 85 85 85 85 65 65 4 4
 4 4 4 4 4 4 4 4 98 99 99 13 49 40 40 40 85 85 85 85
 85 65 65 4 4 4 4 4 4 4 4 4 98 98 98 13 13 49 49 49
 49 85 85 85 85 85 85 20 20 4 4 4 4 4 4 4 98 98 98 98
 98 49 49 49 49 49 85 85 85 11 11 20 20 20 20 20 20 4 4 4
 98 98 98 98 98 98 49 49 49 49 49 85 85 11 11 11 20 20 20 20
 20 20 4 4 71 71 71 71 71 71 71 49 49 49 49 49 49 11 11 11
 11 20 20 20 20 20 20 86 71 71 71 71 71 71 71 71 34 34 49 49
 34 34 11 11 11 20 20 20 20 20 20 20 86 16 16 71 71 71 71 71
 34 34 34 34 34 34 34 34 11 23 23 23 23 23 20 20 86 16 16 16
 16 16 71 71 71 34 34 34 34 34 34 34 34 23 23 23 23 23 23 23
 86 86 16 16 16 16 16 16 71 71 34 34 34 34 34 34 34 34 23 23
 23 23 23 23 23 86 86 16 16 16 16 16 16 16 69 69 34 34 34 34
 34 34 34 23 23 23 23 23 23 23 86 86 16 16 16 16 16 16 16 69
 69 69 69 6 6 6 53 53 48 23 23 23 23 23 23 74 16 16 16 16
 16 16 16 6 6 69 69 69 6 6 6 53 53 53 74 74 74 74 74 74
 74 74 70 70 16 16 16 16 6 6 6 6 6 6 6 6 53 53 53 74
 74 74 74 74 74 74 74 70 70 70 70 70 91 6 6 6 6 6 6 6
 6 53 53 53 74 74 74 74 74 74 74 74 70 70 70 70 70 91 93 6
 6 6 6 6 6 6 53 53 53 74 74 74 74 74 74 74 74 70 70 70
 21 21 91 91 6 6 6 6 6 6 6 6 53 74 74 74 74 74 74 74
 74 74 70 70 21 21 21 91 91 93 6 6 6 6 6 6 6 74 74 74
 74 74 74 74 74 74 18 18 21 21 21 21 21 99 99 99 99 99 99 6
 19 19 74 74 74 74 74 74 74 74 74 18 18 18 21 21 21 99 99 99
 99 99 99 99 40 19 19 19 74 74 74 74 74 74 74 68 68 68 4 4
 4 99 99 99 99 99 99 99 99 40 40 19 19 19 74 74 74 74 74 74
 68 68 4 4 4 4 4 99 99 99 99 99 99 99 40 40 19 19 19 19
 74 74 74 74 74 68 4 4 4 4 4 4 99 99 99 99 99 99 40 40
 40 40 19 19 19 74 74 74 84 68 4 4 4 4 4 4 4 99 99 99
 99 99 99 40 40 40 40 40 40 40 74 84 84 84 84 4 4 4 4 4
 4 4 99 99 99 99 99 99 40 40 40 40 40 40 40 84 84 84 84 84
 4 4 4 4 4 4 4 4 99 99 99 99 99 40 40 40 40 40 40 40
 84 84 84 84 84 4 4 4 4 4 4 4 4 99 99 13 13 13 13 40
 40 40 40 85 11 84 84 84 84 84 15 4 4 4 4 4 4 98 98 13
 13 13 13 13 49 49 85 11 11 11 11 84 84 84 84 15 15 4 4 4
 98 98 98 98 98 13 13 13 49 49 49 11 11 11 11 11 11 84 84 84
 15 15 4 4 4 98 98 98 98 98 13 13 49 49 49 49 11 11 11 11
 11 11 11 84 20 86 20 4 4 71 71 71 71 71 71 71 49 49 49 49
 49 49 11 11 11 11 11 11 20 20 86 86 86 86 71 71 71 71 71 71
 71 34 34 34 34 34 34 11 11 11 11 23 23 23 23 86 86 86 86 16
 71 71 71 71 71 34 34 34 34 34 34 34 11 11 23 23 23 23 23 23
 86 86 86 16 16 16 16 71 71 71 34 34 34 34 34 34 34 34 23 23
 23 23 23 23 23 86 86 86 16 16 16 16 16 71 71 34 34 34 34 34
 34 34 34 23 23 23 23 23 23 23 86 86 16 16 16 16 16 16 16 16
 34 34 34 34 34 34 48 48 48 23 23 23 23 23 23 86 86 16 16 16
 16 16 16 16 6 6 6 6 6 6 6 48 48 48 23 23 23 23 23 23