# vtk DataFile Version 2.0
Data set from ImportExport Version 6.5.141.ec284b7a5
ASCII

DATASET RECTILINEAR_GRID
DIMENSIONS 26 26 26
X_COORDINATES 26 float
-3.000000 3.000000 9.000000 15.000000 21.000000 27.000000 33.000000 39.000000 45.000000 51.000000 57.000000 63.000000 69.000000 75.000000 81.000000 87.000000 93.000000 99.000000 105.000000 111.000000 117.000000 
123.000000 129.000000 135.000000 141.000000 147.000000 
Y_COORDINATES 26 float
-3.000000 3.000000 9.000000 15.000000 21.000000 27.000000 33.000000 39.000000 45.000000 51.000000 57.000000 63.000000 69.000000 75.000000 81.000000 87.000000 93.000000 99.000000 105.000000 111.000000 117.000000 
123.000000 129.000000 135.000000 141.000000 147.000000 
Z_COORDINATES 26 float
-3.000000 3.000000 9.000000 15.000000 21.000000 27.000000 33.000000 39.000000 45.000000 51.000000 57.000000 63.000000 69.000000 75.000000 81.000000 87.000000 93.000000 99.000000 105.000000 111.000000 117.000000 
123.000000 129.000000 135.000000 141.000000 147.000000 
CELL_DATA 15625
SCALARS FeatureIds int 1
LOOKUP_TABLE default
 103 103 103 103 103 103 103 103 36 36 36 36 36 36 36 36 64 64 64 64
 64 64 64 64 64 103 103 103 103 103 103 103 103 36 36 36 36 36 36 36
 36 64 64 64 64 64 64 64 64 55 74 103 103 103 103 103 103 36 36 36
 36 36 36 36 36 36 36 64 64 64 64 64 55 55 55 55 74 28 28 28
 28 28 28 36 36 36 36 36 36 36 36 36 64 64 64 64 55 55 55 55
 55 55 28 28 28 28 28 28 36 36 36 36 36 36 36 36 36 64 64 38
 38 38 38 38 38 38 38 28 28 28 28 28 28 28 36 36 36 36 36 36
 36 36 30 30 38 38 38 38 38 38 38 38 28 28 28 28 28 28 28 36
 36 36 36 36 36 36 30 30 30 30 38 38 38 38 38 38 17 17 17 28
 28 28 28 28 40 40 40 40 40 40 72 30 30 30 30 30 38 38 38 38
 38 17 17 17 17 17 28 28 40 40 40 40 40 40 40 72 72 30 30 30
 30 38 38 38 38 38 17 17 17 17 17 17 17 40 40 40 40 40 40 40
 72 72 30 30 30 30 30 38 38 38 34 34 17 17 17 17 17 17 40 40
 40 40 40 40 40 30 30 30 30 30 30 30 38 38 38 34 34 34 17 17
 17 17 40 40 40 40 40 40 40 40 40 30 30 30 30 30 30 30 38 38
 34 34 34 17 17 63 63 63 40 40 40 40 40 40 40 40 73 30 30 30
 30 30 30 38 38 34 34 34 63 63 63 63 63 40 40 40 40 40 40 40
 40 100 100 30 30 30 30 30 38 38 34 34 34 63 63 63 63 63 63 29
 29 29 29 40 40 100 100 100 100 100 30 30 30 41 41 34 34 63 63 63
 63 63 63 63 29 29 29 29 29 29 100 100 100 100 93 93 93 93 93 93
 70 63 63 63 63 63 63 63 63 29 29 29 29 29 29 100 100 100 93 93
 93 93 93 93 93 70 71 71 71 71 71 71 71 71 29 29 29 29 29 39
 39 39 39 93 93 93 93 93 93 93 71 71 71 71 71 71 71 71 71 71
 29 29 29 3 39 39 39 39 93 93 93 93 93 13 13 71 71 71 71 71
 71 71 71 71 21 21 21 21 21 39 39 39 39 64 64 64 64 64 13 13
 24 24 103 103 103 103 71 71 71 21 21 21 21 21 21 64 64 64 64 64
 64 64 64 13 13 24 24 103 103 103 103 103 103 103 21 21 101 101 101 101
 64 64 64 64 64 64 64 64 13 13 103 103 103 103 103 103 103 103 103 101
 101 101 101 101 101 64 64 64 64 64 64 64 64 13 13 103 103 103 103 103
 103 103 103 103 101 101 101 101 101 101 64 64 64 64 64 64 64 64 13 13
 103 103 103 103 103 103 103 103 103 101 101 36 36 36 36 64 64 64 64 64
 64 64 64 64 64 103 103 103 103 103 103 103 103 36 36 36 36 36 36 36
 36 64 64 64 64 64 64 64 64 55 74 103 103 103 103 103 103 36 36 36
 36 36 36 36 36 36 36 64 64 64 64 64 55 55 55 74 74 74 103 103
 103 103 36 36 36 36 36 36 36 36 36 36 11 11 11 64 55 55 55 55
 55 74 74 28 28 28 28 36 36 36 36 36 36 36 36 36 36 11 11 11
 55 55 55 55 55 55 55 74 28 28 28 28 28 36 36 36 36 36 36 36
 36 36 11 11 55 55 55 55 55 55 55 55 28 28 28 28 28 28 36 36
 36 36 36 36 36 36 36 30 30 55 55 55 55 55 55 38 55 28 28 28
 28 28 28 28 36 36 36 36 36 36 72 72 30 30 30 38 38 38 38 38
 38 38 17 17 28 28 28 28 28 7 7 7 7 36 72 72 72 30 30 30
 30 38 38 38 38 38 17 17 17 17 17 28 96 7 7 7 7 7 7 72
 72 72 72 46 46 30 38 38 38 38 38 34 17 17 17 17 17 7 7 7
 7 7 7 7 7 72 72 72 46 73 30 38 38 38 38 34 34 34 17 17
 17 17 7 7 7 7 7 7 7 7 73 73 73 73 73 73 30 38 38 38
 34 34 34 17 17 17 17 7 7 7 7 7 7 7 7 73 73 73 73 73
 73 30 30 34 34 34 34 34 17 17 63 63 7 7 7 7 7 7 7 73
 73 73 73 73 73 30 30 30 34 34 34 34 34 34 63 63 63 63 7 7
 7 7 7 7 73 73 48 48 48 48 30 30 30 34 34 34 34 34 63 63
 63 63 63 63 7 7 7 29 7 100 100 100 100 100 100 100 100 100 41 41
 34 70 71 71 63 63 63 63 63 29 29 29 29 29 100 100 100 100 100 93
 93 93 93 93 41 70 70 71 71 71 71 71 71 71 29 29 29 29 3 3
 100 100 100 93 93 93 93 93 93 93 70 71 71 71 71 71 71 71 71 71
 29 29 3 3 3 39 39 93 93 93 93 93 93 93 93 70 71 71 71 71
 71 71 71 71 71 21 3 3 3 3 39 39 93 93 93 93 93 93 13 13
 71 71 71 71 71 71 71 71 71 21 21 21 3 3 3 97 39 93 93 64
 64 64 13 13 13 24 71 71 71 71 71 71 71 71 21 21 21 21 21 97
 97 64 64 64 64 64 64 13 13 13 24 103 103 103 103 103 103 71 71 21
 21 21 101 101 97 64 64 64 64 64 64 64 13 13 13 103 103 103 103 103
 103 103 103 103 101 101 101 36 36 36 64 64 64 64 64 64 64 13 13 13
 103 103 103 103 103 103 103 103 103 36 36 36 36 36 36 64 64 64 64 64
 64 64 64 13 13 103 103 103 103 103 103 103 103 36 36 36 36 36 36 36
 64 64 64 64 64 64 64 64 64 13 74 103 103 103 103 103 103 36 36 36
 36 36 36 36 36 36 11 11 11 11 64 8 8 8 8 74 74 74 103 103
 103 103 36 36 36 36 36 36 36 36 36 11 11 11 11 11 8 8 55 55
 74 74 74 74 103 103 36 36 36 36 36 36 36 36 36 36 11 11 11 11
 11 55 55 55 55 74 74 74 74 74 28 36 36 36 36 36 36 36 36 36
 36 11 11 11 11 55 55 55 55 55 55 74 74 74 28 28 28 36 36 36
 36 36 36 36 36 36 11 11 11 11 55 55 55 55 55 55 55 74 28 28
 28 28 28 36 36 36 36 36 36 36 36 11 11 11 55 55 55 55 55 55
 55 55 55 28 28 28 28 28 36 36 36 36 36 36 36 72 46 46 46 55
 55 55 55 55 55 38 55 17 17 96 96 96 96 75 7 7 7 7 7 72
 72 46 46 46 46 38 38 38 38 38 38 38 17 17 96 96 96 96 7 7
 7 7 7 7 72 72 72 46 46 46 46 38 38 38 38 34 34 34 17 96
 96 96 96 7 7 7 7 7 7 7 46 46 46 46 73 73 38 38 38 38
 34 34 34 17 17 96 96 7 7 7 7 7 7 7 7 73 73 46 73 73
 73 73 38 38 38 34 34 34 34 17 96 96 7 7 7 7 7 7 7 7
 73 73 73 73 73 73 73 38 34 34 34 34 34 34 34 96 7 7 7 7
 7 7 7 7 73 73 73 48 73 73 73 73 73 34 34 34 34 34 34 63
 63 63 7 7 7 7 7 7 7 73 73 48 48 48 73 73 73 73 34 34
 34 34 41 71 71 71 71 71 7 7 7 7 7 7 73 73 48 48 48 48
 73 73 73 41 41 70 70 71 71 71 71 71 71 71 7 7 7 3 3 3
 100 100 100 100 93 93 93 93 41 41 70 70 71 71 71 71 71 71 71 71
 3 3 3 3 3 100 100 100 93 93 93 93 93 5 5 70 70 71 71 71
 71 71 71 71 71 3 3 3 3 3 3 39 93 93 93 93 93 93 5 5
 70 71 71 71 71 71 71 71 71 71 3 3 3 3 3 3 39 93 93 93
 93 93 5 5 5 71 71 71 71 71 71 71 71 71 71 21 3 3 3 3
 97 97 93 93 93 93 5 5 13 13 71 71 71 71 71 71 71 71 71 21
 21 21 3 3 97 97 97 64 64 64 64 5 13 13 13 71 71 71 71 71
 71 71 71 71 21 21 21 36 97 97 97 97 64 64 64 64 64 13 13 13
 103 103 103 103 103 103 71 71 71 36 36 36 36 36 97 97 97 64 64 64
 64 64 13 13 13 103 103 103 103 103 103 103 103 36 36 36 36 36 36 36
 11 64 64 64 64 64 64 64 13 13 103 103 103 103 103 103 103 103 36 36
 36 36 36 36 36 11 11 11 64 64 64 64 64 13 13 74 74 103 103 103
 103 103 36 36 36 36 36 36 36 36 11 11 11 11 11 8 8 8 8 8
 74 74 74 103 103 103 36 36 36 36 36 36 36 36 36 11 11 11 11 11
 8 8 8 8 55 74 74 74 74 74 75 36 36 36 36 36 36 36 36 36
 11 11 11 11 11 11 8 55 55 55 74 74 74 74 74 75 75 36 36 36
 36 36 36 36 36 11 11 11 11 11 55 55 55 55 55 74 74 74 74 74
 75 75 75 36 36 36 36 36 36 36 11 11 11 11 11 55 55 55 55 55
 55 55 74 74 75 75 75 75 75 36 36 10 10 10 10 11 11 11 11 55
 55 55 55 55 55 55 55 55 75 75 96 96 75 75 75 36 10 10 10 10
 46 46 46 46 55 55 55 55 55 55 55 55 55 96 96 96 96 96 75 75
 7 7 7 7 46 46 46 46 46 46 55 55 55 55 55 38 38 96 96 96
 96 96 96 96 7 7 7 7 7 46 46 46 46 46 73 73 38 38 38 38
 34 34 96 96 96 96 96 96 7 7 7 7 7 7 73 73 46 46 46 73
 73 73 38 38 38 34 34 34 96 96 96 96 96 7 7 7 7 7 7 73
 73 73 46 73 73 73 73 73 38 38 34 34 34 96 96 96 96 7 7 7
 7 7 7 7 73 73 73 73 73 73 73 73 73 34 34 41 41 41 41 96
 96 96 7 7 7 7 7 7 7 73 73 73 48 73 73 73 73 73 41 41
 41 41 41 41 58 58 58 7 7 7 7 7 7 7 73 73 48 48 48 73
 73 73 73 41 41 41 41 41 41 58 58 58 58 7 7 7 7 7 7 73
 73 48 48 48 48 73 73 73 41 41 41 41 71 71 58 58 58 58 71 7
 7 3 3 3 3 73 48 48 48 48 93 93 5 41 41 70 70 71 71 71
 58 58 71 71 71 3 3 3 3 3 3 48 48 93 93 93 93 5 5 5
 70 70 70 71 71 71 71 71 71 71 3 3 3 3 3 3 3 42 93 93
 93 5 5 5 5 70 70 71 71 71 71 71 71 71 71 3 3 3 3 3
 3 3 42 93 93 5 5 5 5 5 71 71 71 71 71 71 71 71 71 71
 3 3 3 3 3 97 97 42 93 5 5 5 5 5 5 71 71 71 71 71
 71 71 71 71 71 21 3 3 3 97 97 97 64 64 5 5 5 5 5 5
 71 71 71 71 71 71 71 71 71 71 21 21 36 97 97 97 97 64 64 64
 5 5 5 5 13 103 103 71 71 71 71 71 71 71 36 36 36 36 36 97
 97 97 64 64 64 64 5 5 13 13 103 103 103 103 103 103 71 71 36 36
 36 36 36 36 36 11 11 11 11 11 64 64 5 13 13 103 103 103 103 103
 103 103 103 36 36 36 36 36 36 36 11 11 11 11 11 64 8 8 8 8
 74 74 74 103 103 103 103 36 36 36 36 36 81 81 11 11 11 11 11 11
 8 8 8 8 8 74 74 74 74 75 75 36 36 36 36 36 36 36 36 11
 11 11 11 11 11 8 8 8 8 8 74 74 74 74 75 75 75 75 36 36
 36 36 36 36 11 11 11 11 11 11 8 8 8 55 55 74 74 74 74 75
 75 75 75 75 36 36 10 10 10 10 11 11 11 11 11 8 8 55 55 55
 55 74 74 74 75 75 75 75 75 75 10 10 10 10 10 11 11 11 11 11
 55 55 55 55 55 55 55 74 75 75 75 75 75 75 75 10 10 10 10 10
 11 11 11 11 11 55 55 55 55 55 55 55 55 75 75 75 75 75 75 75
 10 10 10 10 10 10 46 46 73 55 55 55 55 55 55 55 55 96 96 96
 96 96 75 75 75 16 10 10 10 10 73 46 46 73 73 55 55 55 55 55
 38 38 96 96 96 96 96 96 75 7 7 7 7 7 73 73 46 46 46 73
 73 47 47 38 38 34 34 96 96 96 96 96 96 7 7 7 7 7 7 73
 73 46 46 73 73 73 47 47 38 38 34 34 96 96 96 96 96 96 7 7
 7 7 7 7 73 73 73 73 73 73 73 73 47 38 38 41 41 41 96 96
 96 96 96 7 7 7 7 7 7 73 73 73 73 73 73 73 73 73 41 41
 41 41 41 41 96 96 96 7 7 7 7 7 7 7 73 73 73 73 73 73
 73 73 73 41 41 41 41 41 41 41 58 58 7 7 7 7 7 7 7 73
 73 73 48 73 73 73 73 73 41 41 41 41 41 41 58 58 58 58 7 7
 7 7 7 7 73 73 73 48 48 73 73 73 41 41 41 41 41 41 58 58
 58 58 58 58 78 3 3 3 3 3 73 73 42 42 73 73 5 5 41 41
 41 70 71 58 58 58 58 58 71 3 3 3 3 3 3 42 42 42 42 42
 5 5 5 5 5 70 70 71 71 58 58 58 58 71 71 3 3 3 3 3
 42 42 42 42 42 5 5 5 5 5 5 71 71 71 71 71 71 71 71 71
 3 3 3 3 3 42 42 42 42 5 5 5 5 5 5 5 71 71 71 71
 71 71 71 71 71 3 3 3 3 3 97 42 42 42 5 5 5 5 5 5
 5 71 71 71 71 71 71 71 71 71 3 3 3 3 97 97 97 97 5 5
 5 5 5 5 5 5 71 71 71 71 71 71 71 71 71 81 81 81 81 97
 97 97 97 5 5 5 5 5 5 5 5 71 71 71 71 71 71 71 71 81
 81 81 81 81 81 97 97 11 11 5 5 5 5 5 5 103 103 71 71 71
 71 71 71 71 36 81 81 81 81 81 11 11 11 11 11 5 5 5 5 5
 103 103 103 103 103 103 103 71 36 36 81 81 81 81 81 11 11 11 11 11
 8 8 8 8 8 74 74 43 43 43 75 75 36 36 81 81 81 81 81 81
 11 11 11 11 11 8 8 8 8 8 74 74 74 74 75 75 75 75 75 81
 81 81 81 81 11 11 11 11 11 11 8 8 8 8 8 74 74 74 75 75
 75 75 75 75 75 75 10 10 10 11 11 11 11 11 11 8 8 8 8 55
 55 74 74 75 75 75 75 75 75 75 75 10 10 10 10 11 11 11 11 11
 8 8 8 55 55 55 74 74 75 75 75 75 75 75 75 10 10 10 10 10
 11 11 11 11 11 8 55 55 55 55 55 55 75 75 75 75 75 75 75 75
 10 10 10 10 10 10 11 11 11 11 55 55 55 55 55 55 55 75 75 75
 75 75 75 75 75 75 10 10 10 10 10 73 73 73 73 55 55 55 55 55
 55 55 96 96 96 96 96 75 75 75 16 16 10 10 10 73 73 73 73 73
 73 55 55 55 55 15 15 96 96 96 96 96 96 75 16 16 16 16 16 73
 73 73 73 73 73 73 47 47 38 55 57 57 96 96 96 96 96 96 16 16
 16 16 16 16 73 73 73 73 73 73 47 47 47 47 57 57 57 57 96 96
 96 96 96 7 7 7 7 7 7 73 73 73 73 73 73 73 47 47 47 57
 57 57 57 96 96 96 96 96 7 7 7 7 7 7 73 73 73 73 73 73
 73 73 47 57 57 41 41 41 57 57 96 96 96 7 7 7 7 7 7 73
 73 73 73 73 73 73 73 73 57 57 41 41 41 41 41 58 58 58 7 7
 7 7 7 73 73 73 73 73 73 73 73 73 73 41 41 41 41 41 57 58
 58 58 58 78 78 78 78 78 78 73 73 73 73 73 73 73 73 57 57 57
 57 57 57 58 58 58 58 58 58 78 78 78 78 78 78 42 42 42 42 42
 5 5 5 57 57 57 57 58 58 58 58 58 58 58 78 78 3 3 3 78
 42 42 42 42 42 5 5 5 5 5 5 5 71 58 58 58 58 58 58 78
 3 3 3 3 3 42 42 42 42 42 5 5 5 5 5 5 71 71 71 58
 58 58 58 71 71 3 3 3 3 3 42 42 42 42 5 5 5 5 5 5
 5 71 71 71 71 71 71 71 71 71 3 3 3 3 3 42 42 42 5 5
 5 5 5 5 5 5 71 71 71 71 71 71 71 71 71 81 81 81 81 81
 97 42 5 5 5 5 5 5 5 5 5 5 71 71 71 71 71 71 71 81
 81 81 81 81 81 81 97 5 5 5 5 5 5 5 5 5 5 71 71 71
 71 71 71 71 81 81 81 81 81 81 81 81 11 5 5 5 5 5 5 5
 5 103 71 71 71 71 71 71 81 81 81 81 81 81 81 81 11 11 11 11
 5 5 5 5 5 5 43 43 71 103 103 103 71 81 81 81 81 81 81 81
 11 11 11 11 11 8 8 8 8 5 43 43 43 43 43 75 75 75 81 81
 81 81 81 81 81 11 11 11 11 11 8 8 8 8 8 74 43 43 43 75
 75 75 75 75 81 81 81 81 81 11 11 11 11 11 11 8 8 8 8 8
 74 43 43 75 75 75 75 75 75 75 75 81 81 81 11 11 11 11 11 11
 8 8 8 8 8 55 74 74 75 75 75 75 75 75 75 75 10 10 10 10
 11 11 11 11 11 8 8 8 8 55 55 74 75 75 75 75 75 75 75 75
 75 10 10 10 10 10 11 11 11 11 8 55 55 55 55 55 55 75 75 75
 75 75 75 75 75 10 10 10 10 10 10 11 11 11 11 4 55 55 55 55
 55 55 75 75 75 75 75 75 75 75 75 10 10 10 10 10 11 73 73 4
 4 4 4 55 55 15 15 15 75 75 75 75 75 75 75 16 16 16 16 16
 73 73 73 73 73 4 4 4 4 55 15 15 15 96 96 96 96 75 75 16
 16 16 16 16 16 73 73 73 73 73 73 4 4 4 15 15 15 15 96 96
 96 96 96 16 16 16 16 16 16 16 73 73 73 73 73 73 47 47 47 57
 57 57 57 96 96 96 96 96 16 16 16 16 16 16 73 73 73 73 73 73
 73 73 47 57 57 57 57 57 57 96 96 96 96 16 16 16 16 16 16 73
 73 73 73 73 73 73 73 73 57 57 57 57 57 57 57 96 96 96 7 7
 7 7 7 73 73 73 73 73 73 73 73 73 73 57 57 57 57 57 57 57
 57 58 58 78 78 78 78 78 78 73 73 73 73 73 73 73 73 57 57 57
 57 57 57 57 58 58 58 58 78 78 78 78 78 78 78 73 73 73 73 73
 73 9 57 57 57 57 57 57 57 58 58 58 58 78 78 78 78 78 78 78
 82 73 42 42 73 5 5 5 57 57 57 57 57 58 58 58 58 58 78 78
 78 78 78 78 78 42 42 42 42 42 5 5 5 5 5 5 5 58 58 58
 58 58 58 58 78 78 78 78 78 78 42 42 42 42 5 5 5 5 5 5
 5 5 71 58 58 58 58 58 58 78 78 78 78 78 78 42 42 42 42 5
 5 5 5 5 5 5 5 71 71 58 58 58 71 71 78 78 78 78 78 78
 42 42 42 5 5 5 5 5 5 5 5 5 71 71 71 71 71 71 71 71
 81 81 81 81 81 81 5 5 5 5 5 5 5 5 5 5 5 71 71 71
 71 71 71 71 81 81 81 81 81 81 81 81 5 5 5 5 5 5 5 5
 5 5 71 71 71 71 71 71 81 81 81 81 81 81 81 81 81 5 5 5
 5 5 5 5 5 5 5 71 71 71 71 71 81 81 81 81 81 81 81 81
 81 11 11 11 11 5 5 5 5 5 5 43 43 43 43 43 71 81 81 81
 81 81 81 81 81 11 11 11 11 11 8 8 8 8 5 43 43 43 43 43
 43 75 81 81 81 81 81 81 81 81 11 11 11 11 11 8 8 8 8 8
 43 43 43 43 43 75 75 75 75 81 81 81 81 81 81 11 11 11 11 11
 8 8 8 8 8 43 43 43 43 43 75 75 75 75 75 75 81 81 81 11
 11 11 11 11 102 102 8 8 8 8 55 43 43 75 75 75 75 75 75 75
 75 75 10 10 10 11 11 11 102 102 102 102 8 8 55 55 75 75 75 75
 75 75 75 75 75 75 75 10 10 10 10 11 11 102 102 102 102 55 55 55
 15 75 75 75 75 75 75 75 75 75 75 10 10 10 10 10 11 11 102 102
 102 4 4 4 55 15 15 75 75 75 75 75 75 75 75 75 75 10 10 10
 10 79 79 79 102 4 4 4 4 4 15 15 15 75 75 75 75 75 75 75
 16 16 16 16 16 73 73 73 79 45 4 4 4 4 15 15 15 15 15 96
 96 75 75 75 16 16 16 16 16 16 73 73 73 45 45 4 4 4 4 15
 15 15 15 15 96 96 96 75 16 16 16 16 16 16 16 73 73 73 73 45
 45 45 47 47 15 15 15 15 96 96 96 96 96 16 16 16 16 16 16 73
 73 73 73 73 73 73 73 73 57 57 57 57 57 57 96 96 96 96 16 16
 16 16 16 16 73 73 73 73 73 73 73 73 73 57 57 57 57 57 57 57
 96 96 78 78 78 78 78 78 78 73 73 73 73 73 73 73 73 57 57 57
 57 57 57 57 57 57 58 78 78 78 78 78 78 78 78 73 73 73 73 73
 73 9 57 57 57 57 57 57 57 57 58 58 78 78 78 78 78 78 78 78
 82 82 73 73 9 9 9 9 57 57 57 57 57 57 58 58 58 78 78 78
 78 78 78 78 82 82 82 82 9 9 9 9 9 5 57 57 57 57 58 58
 58 58 58 78 78 78 78 78 78 78 82 82 42 9 9 9 9 5 5 5
 5 5 58 58 58 58 58 58 78 78 78 78 78 78 78 82 42 42 42 5
 5 5 5 5 5 5 5 71 58 58 58 58 58 78 78 78 78 78 78 78
 42 42 42 5 5 5 5 5 5 5 5 5 6 58 58 58 58 58 71 78
 78 78 78 78 78 42 5 5 5 5 5 5 5 5 5 5 5 6 6 6
 71 71 71 71 81 81 81 81 81 81 81 5 5 5 5 5 5 5 5 5
 5 5 6 6 6 71 71 71 81 81 81 81 81 81 81 81 81 5 5 5
 5 5 5 5 5 5 5 6 6 6 71 71 71 81 81 81 81 81 81 81
 81 81 5 5 5 5 5 5 5 5 5 43 43 6 43 6 71 81 81 81
 81 81 81 81 81 81 11 11 11 5 5 5 5 5 5 5 43 43 43 43
 43 43 81 81 81 81 81 81 81 81 81 11 11 11 11 8 8 8 5 5
 43 43 43 43 43 43 43 81 81 81 81 81 81 81 81 81 11 11 11 11
 102 8 8 8 8 43 43 43 43 43 43 75 75 75 81 81 81 81 81 81
 11 11 11 102 102 102 102 8 8 8 43 43 43 43 43 75 75 75 75 75
 75 81 81 81 81 11 11 102 102 102 102 102 8 8 8 43 43 43 43 75
 75 75 75 75 75 75 75 75 10 10 11 11 102 102 102 102 102 102 102 87
 75 75 75 75 75 75 75 75 75 75 75 75 75 10 10 10 11 102 102 102
 102 102 102 55 55 15 75 75 75 75 75 75 75 75 75 75 75 75 10 10
 10 79 102 102 102 102 4 4 4 4 15 15 75 75 75 75 75 75 75 75
 75 75 75 10 10 79 79 79 79 102 4 4 4 4 4 15 15 15 75 75
 75 75 75 75 75 75 16 16 16 16 79 79 79 79 45 4 4 4 4 15
 15 15 15 15 75 75 75 75 75 16 16 16 16 16 16 16 79 79 45 45
 45 4 4 4 15 15 15 15 15 75 75 75 75 16 16 16 16 16 16 16
 73 73 45 45 45 45 45 4 15 15 15 15 15 15 96 96 96 75 16 16
 16 16 16 16 16 73 73 73 45 45 45 45 45 15 15 57 57 57 57 57
 96 96 75 16 16 16 16 16 16 73 73 73 73 73 73 73 73 73 57 57
 57 57 57 57 57 57 78 78 78 78 78 78 78 78 73 73 73 73 73 73
 73 73 57 57 57 57 57 57 57 57 57 78 78 78 78 78 78 78 78 82
 82 82 73 73 73 9 9 9 57 57 57 57 57 57 57 58 78 78 78 78
 78 78 78 78 82 82 82 82 9 9 9 9 9 57 57 57 57 57 57 57
 58 58 78 78 78 78 78 78 78 82 82 82 82 9 9 9 9 9 9 57
 57 57 57 57 58 58 58 78 78 78 78 78 78 78 82 82 82 82 9 9
 9 9 9 5 5 5 5 57 58 58 58 58 78 78 78 78 78 78 78 78
 82 82 82 9 9 9 5 5 5 5 5 5 6 6 58 58 58 58 78 78
 78 78 78 78 78 82 82 5 5 5 5 5 5 5 5 5 5 6 6 6
 6 6 58 78 78 78 78 78 78 78 61 5 5 5 5 5 5 5 5 5
 5 6 6 6 6 6 6 6 78 78 81 81 81 81 81 61 61 5 5 5
 5 5 5 5 5 5 6 6 6 6 6 6 6 81 81 81 81 81 81 81
 61 61 5 5 5 5 5 5 5 5 5 6 6 6 6 6 6 6 81 81
 81 81 81 81 81 81 61 5 5 5 5 5 5 5 5 6 6 6 6 6
 6 6 81 81 81 81 81 81 81 81 81 11 11 5 5 5 5 5 5 5
 6 6 43 43 43 6 6 81 81 81 81 81 81 81 81 81 11 11 11 11
 5 5 5 5 5 43 43 43 43 43 43 56 56 81 81 81 81 81 81 81
 81 11 11 11 102 102 102 102 35 35 43 43 43 43 43 43 56 56 75 81
 81 81 81 81 81 81 11 102 102 102 102 102 102 87 87 43 43 43 43 43
 75 75 75 75 75 75 75 81 81 81 11 102 102 102 102 102 102 102 87 87
 43 43 43 43 43 75 75 75 75 75 75 75 75 81 81 11 102 102 102 102
 102 102 102 102 87 15 75 75 75 75 75 75 75 75 75 75 75 75 10 10
 102 102 102 102 102 102 102 102 87 87 15 75 75 75 75 75 75 75 75 75
 75 75 75 10 10 79 79 79 102 102 102 102 4 4 4 15 15 75 75 75
 75 75 75 75 75 75 75 75 75 79 79 79 79 79 102 69 69 69 4 4
 15 15 15 75 75 75 75 75 75 75 75 75 16 16 79 79 79 79 79 45
 69 69 69 4 15 15 15 15 15 75 75 75 75 75 75 16 16 16 16 16
 79 79 79 45 45 45 69 69 4 15 15 15 15 15 75 75 75 75 75 16
 16 16 16 16 16 73 73 45 45 45 45 45 69 15 15 15 15 15 15 15
 75 75 75 16 16 16 16 16 16 16 73 73 45 45 45 45 45 45 15 15
 15 15 15 57 57 96 75 78 78 78 78 78 78 78 73 73 73 73 73 45
 45 45 45 57 57 57 57 57 57 57 57 78 78 78 78 78 78 78 78 78
 73 73 73 73 73 73 9 9 57 57 57 57 57 57 57 57 78 78 78 78
 78 78 78 78 82 82 82 82 73 9 9 9 9 57 57 57 57 57 57 57
 31 78 78 78 78 78 78 78 78 82 82 82 82 9 9 9 9 9 9 57
 57 57 57 57 57 31 78 78 78 78 78 78 78 78 82 82 82 82 9 9
 9 9 9 9 57 5 14 57 57 58 58 58 78 78 78 78 78 78 78 82
 82 82 82 9 9 9 9 9 5 5 5 5 57 6 6 58 58 78 78 78
 78 78 78 78 82 82 82 82 9 9 9 9 5 5 5 5 5 6 6 6
 6 6 78 78 78 78 78 78 78 78 82 82 82 5 5 5 5 5 5 5
 5 6 6 6 6 6 6 6 78 78 78 78 78 78 78 82 5 5 5 5
 5 5 5 5 5 5 6 6 6 6 6 6 6 59 78 78 81 81 81 61
 61 61 5 5 5 5 5 5 5 5 5 6 6 6 6 6 6 6 81 81
 81 81 81 81 61 61 61 5 5 5 5 5 5 5 5 6 6 6 6 6
 6 6 6 81 81 81 81 81 81 81 61 61 5 5 5 5 5 5 5 5
 6 6 6 6 6 6 6 6 81 81 81 81 81 81 81 81 61 5 5 5
 5 5 5 5 5 6 6 43 43 43 6 6 6 81 81 81 81 81 81 81
 81 11 11 11 5 5 5 5 5 35 35 43 43 43 43 43 56 56 56 81
 81 81 81 20 20 81 102 102 66 66 66 66 66 35 35 35 43 43 43 43
 43 56 56 56 75 81 81 20 20 20 20 102 102 102 102 102 102 102 87 87
 43 43 43 43 43 75 56 56 56 75 75 75 20 20 20 20 102 102 102 102
 102 102 87 87 87 19 43 43 43 43 75 75 75 75 75 75 75 75 20 20
 20 102 102 102 102 102 102 102 87 87 84 84 43 75 75 75 75 75 75 75
 75 75 75 75 20 102 102 102 102 102 102 102 87 87 87 85 85 75 75 75
 75 75 75 75 75 75 75 75 75 75 79 79 102 102 102 102 102 4 87 87
 85 85 85 75 75 75 75 75 75 75 75 75 75 75 75 79 79 79 79 102
 69 69 69 85 85 85 85 85 85 75 75 75 75 75 75 75 75 75 75 79
 79 79 79 79 45 69 69 69 85 85 15 15 15 85 75 75 75 75 75 75
 75 16 16 16 16 79 79 79 45 45 45 69 69 85 85 15 15 15 85 85
 75 75 75 75 75 16 16 16 16 16 79 79 45 45 45 45 45 85 85 85
 85 15 15 85 85 75 75 75 75 16 16 16 16 16 16 73 73 45 45 45
 45 45 85 85 85 85 85 85 85 85 85 31 31 78 78 78 78 78 78 91
 91 73 45 45 45 45 45 85 85 85 57 57 57 57 57 31 31 31 78 78
 78 78 78 78 91 91 91 73 73 45 9 9 9 85 85 57 57 57 57 31
 31 31 31 78 78 78 78 78 78 91 82 82 82 9 9 9 9 9 9 57
 14 14 14 57 31 31 31 31 78 78 78 78 78 78 82 82 82 82 9 9
 9 9 9 89 89 14 14 14 14 31 31 31 31 78 78 78 78 78 78 82
 82 82 82 9 9 9 9 9 89 89 14 14 14 14 31 31 31 31 31 78
 78 78 78 78 82 82 82 82 9 9 9 9 9 89 5 14 14 14 6 6
 31 31 31 31 78 78 78 78 78 82 82 82 82 9 9 9 9 9 5 5
 5 6 6 6 6 6 59 59 59 78 78 78 78 78 78 82 82 82 5 9
 5 5 5 5 5 5 6 6 6 6 6 59 59 59 78 78 78 65 65 65
 65 5 5 5 5 5 5 5 5 5 6 6 6 6 6 6 6 59 59 59
 65 65 65 65 65 61 61 5 5 5 5 5 5 5 5 6 6 6 6 6
 6 6 6 59 81 81 65 65 65 65 61 61 5 5 5 5 5 5 5 5
 6 6 6 6 6 6 6 6 6 81 81 81 81 65 65 65 61 5 5 5
 5 5 5 5 5 35 6 6 6 6 6 6 6 81 81 81 81 81 81 81
 81 61 5 5 5 5 5 5 5 35 35 35 6 6 6 6 6 56 81 81
 81 81 81 81 81 81 11 11 11 5 66 5 5 35 35 35 35 35 43 43
 56 56 56 56 56 81 81 20 20 20 20 66 66 66 66 66 66 66 35 35
 35 35 43 43 43 56 56 56 56 56 81 81 20 20 20 20 66 66 66 66
 66 66 66 87 35 19 19 43 43 43 56 56 56 56 75 75 75 20 20 20
 20 66 66 66 102 66 66 87 87 87 19 19 19 43 75 75 75 75 75 75
 75 75 75 20 20 20 102 102 102 102 102 102 87 87 87 84 84 84 84 75
 75 75 75 75 75 75 75 75 75 20 102 102 102 102 102 102 102 87 87 87
 84 84 84 84 75 75 75 75 75 75 75 75 75 75 75 90 90 102 102 102
 102 102 87 84 84 85 85 85 85 75 75 75 75 75 75 75 75 75 75 75
 79 79 79 79 102 69 69 69 85 85 85 85 85 85 85 75 75 75 75 75
 75 75 75 75 79 79 79 79 79 45 69 69 85 85 85 85 85 85 85 85
 75 51 51 75 75 75 75 75 16 16 79 79 79 45 45 45 69 85 85 85
 85 85 85 85 85 75 51 51 75 75 16 16 16 16 91 91 79 45 45 45
 45 45 85 85 85 85 85 85 85 85 85 51 51 75 16 16 16 91 91 91
 91 91 1 1 45 45 45 85 85 85 85 85 85 85 85 85 31 31 31 78
 78 78 91 91 91 91 91 1 1 1 1 1 85 85 85 85 85 85 85 85
 31 31 31 31 78 78 78 91 91 91 91 91 1 1 1 1 9 9 85 85
 85 85 85 85 31 31 31 31 31 78 78 78 91 91 91 91 91 91 9 9
 9 9 9 89 85 14 14 14 14 31 31 31 31 31 31 78 78 91 91 91
 91 82 82 9 9 9 9 89 89 89 14 14 14 14 31 31 31 31 31 31
 78 78 78 91 91 82 82 82 9 9 9 9 89 89 89 14 14 14 14 31
 31 31 31 31 31 78 78 78 78 82 82 82 82 9 9 9 9 9 89 89
 14 14 14 14 6 31 31 31 31 31 31 78 78 78 82 82 82 82 9 9
 9 9 9 5 5 14 14 6 6 6 6 59 59 59 31 31 78 65 65 65
 65 82 82 9 9 5 5 5 5 5 6 6 6 6 6 6 59 59 59 31
 31 65 65 65 65 65 65 5 5 5 5 5 5 5 5 6 6 6 6 6
 6 59 59 59 31 65 65 65 65 65 65 65 65 5 5 5 5 5 5 5
 6 6 6 6 6 6 6 6 59 65 65 65 65 65 65 65 65 65 5 5
 5 5 5 5 35 35 6 6 6 6 6 6 6 6 65 65 65 65 65 65
 65 65 65 5 5 5 5 5 5 35 35 35 6 6 6 6 6 6 6 81
 65 65 65 65 65 65 65 65 66 5 5 5 5 5 35 35 35 35 6 6
 6 56 56 56 81 81 81 81 65 65 65 65 66 66 66 66 66 35 35 35
 35 35 35 35 35 56 56 56 56 56 81 81 20 20 20 20 66 66 66 66
 66 66 66 35 35 35 35 35 35 35 56 56 56 56 56 56 20 20 20 20
 20 66 66 66 66 66 66 66 35 35 19 19 19 84 43 56 56 56 56 56
 75 20 20 20 20 20 66 66 66 66 66 66 87 87 84 19 19 19 84 84
 75 75 75 75 75 75 75 20 20 20 20 66 66 66 66 66 66 87 87 84
 84 19 19 84 84 75 75 75 75 75 75 75 75 75 20 90 90 90 90 66
 66 102 87 87 84 84 84 84 84 84 75 75 75 75 75 75 75 75 75 90
 90 90 90 90 102 102 102 84 84 84 84 84 84 84 84 51 51 51 51 75
 75 75 75 75 90 90 90 90 90 102 69 69 69 85 85 85 85 85 85 85
 51 51 51 51 51 75 75 75 75 67 67 67 67 67 1 69 69 85 85 85
 85 85 85 85 85 51 51 51 51 51 75 75 75 91 91 67 67 67 1 1
 1 85 85 85 85 85 85 85 85 85 85 51 51 51 51 16 16 91 91 91
 91 1 1 1 1 1 1 85 85 85 85 85 85 85 85 85 51 51 51 51
 91 91 91 91 91 91 1 1 1 1 1 1 85 85 85 85 85 85 85 85
 85 31 31 25 25 91 91 91 91 91 91 91 1 1 1 1 1 85 85 85
 85 85 85 85 85 31 31 31 25 25 25 91 91 91 91 91 91 1 1 1
 1 1 85 85 85 85 85 85 85 31 31 31 31 31 25 25 91 91 91 91
 91 91 91 1 1 1 9 89 85 85 14 14 14 14 31 31 31 31 31 31
 31 91 91 91 91 91 91 91 9 9 9 9 89 89 89 14 14 14 14 31
 31 31 31 31 31 31 91 91 91 91 91 91 91 9 9 9 9 89 89 89
 14 14 14 14 31 31 31 31 31 31 31 31 91 91 91 91 91 91 9 9
 9 9 9 89 14 14 14 14 14 31 31 31 31 31 31 31 31 31 91 91
 91 82 82 9 9 9 9 5 5 14 14 14 14 6 6 31 31 31 31 31
 31 31 65 65 65 65 82 82 5 5 5 5 5 5 5 6 6 6 6 6
 6 59 59 59 31 31 65 65 65 65 65 65 65 5 5 5 5 5 5 5
 6 6 6 6 6 6 6 59 59 31 65 65 65 65 65 65 65 65 80 80
 5 5 5 5 35 35 6 6 6 6 6 6 6 59 65 65 65 65 65 65
 65 65 65 80 80 5 5 5 5 35 35 35 6 6 6 6 6 6 6 65
 65 65 65 65 65 65 65 65 80 80 5 5 5 35 35 35 35 35 6 6
 6 6 6 6 65 65 65 65 65 65 65 65 65 66 66 66 5 35 35 35
 35 35 35 35 6 6 6 56 56 65 65 65 65 65 65 65 65 66 66 66
 66 66 66 35 35 35 35 35 35 35 35 56 56 56 56 56 81 20 65 20
 66 66 66 66 66 66 66 66 35 35 35 35 35 35 35 56 56 56 56 56
 56 20 20 20 20 66 66 66 66 66 66 66 66 35 35 19 19 19 84 84
 56 56 56 56 56 75 20 20 20 20 66 66 66 66 66 66 66 66 84 84
 19 19 19 84 84 84 75 75 75 75 75 75 20 20 20 66 66 66 66 66
 66 66 84 84 84 84 19 84 84 84 84 75 75 75 75 75 75 75 75 90
 90 90 90 90 66 66 66 84 84 84 84 84 84 84 84 84 51 51 51 75
 75 75 75 75 90 90 90 90 90 66 66 84 84 84 84 84 84 84 84 84
 51 51 51 51 51 75 75 75 75 90 90 90 90 90 90 66 84 84 84 84
 85 85 85 85 85 51 51 51 51 51 75 75 75 67 67 67 67 67 67 67
 67 85 85 85 85 85 85 85 85 85 51 51 51 51 51 51 51 91 91 91
 67 67 67 67 1 1 85 85 85 85 85 85 85 85 85 85 51 51 51 51
 51 91 91 91 91 91 91 1 1 1 1 1 85 85 85 85 85 85 85 85
 85 51 51 51 25 91 91 91 91 91 91 91 1 1 1 1 1 85 85 85
 85 85 85 85 85 85 31 31 31 25 91 91 91 91 91 91 91 1 1 1
 1 1 85 85 85 85 85 85 85 85 31 31 31 25 25 25 91 91 91 91
 91 91 1 1 1 1 1 85 85 85 85 85 85 85 31 31 31 31 25 25
 25 91 91 91 91 91 91 91 1 1 1 1 85 85 85 14 14 14 31 31
 31 31 31 31 31 31 91 91 91 91 91 91 91 22 22 22 22 89 89 89
 14 14 14 31 31 31 31 31 31 31 31 91 91 91 91 91 91 91 22 22
 22 22 89 89 89 14 14 14 31 31 31 31 31 31 31 31 31 91 91 91
 91 91 91 22 22 22 22 9 89 14 14 14 14 31 31 31 31 31 31 31
 31 31 31 91 91 92 92 92 22 22 22 9 5 5 14 14 14 6 6 6
 31 31 31 31 31 31 31 65 65 92 92 92 92 92 5 5 5 5 5 5
 6 6 6 6 6 6 31 31 31 31 31 65 65 65 65 92 92 92 92 5
 5 5 5 5 5 35 6 6 6 6 6 6 31 31 31 65 65 65 65 65
 65 65 92 80 80 80 5 5 5 35 35 6 6 6 6 6 6 6 31 31
 65 65 65 65 65 65 65 65 80 80 80 5 5 35 35 35 35 35 6 6
 6 6 6 6 65 65 65 65 65 65 65 65 65 80 80 80 23 23 35 35
 35 35 35 35 6 6 6 6 6 65 65 65 65 65 65 65 65 66 66 66
 66 23 23 35 35 35 35 35 35 35 6 6 56 56 65 65 65 65 65 65
 65 65 66 66 66 66 66 23 35 35 35 35 35 35 35 35 56 56 56 52
 52 52 20 65 50 50 50 66 66 66 66 66 23 23 35 35 35 35 35 35
 35 56 56 52 52 52 52 52 20 50 50 50 66 66 66 66 66 50 23 35
 84 19 19 84 84 84 56 52 52 52 52 52 52 20 50 50 50 66 66 66
 66 66 50 84 84 84 19 84 84 84 84 84 53 52 52 52 52 52 20 50
 50 50 50 66 66 66 50 84 84 84 84 84 84 84 84 84 84 75 75 75
 52 95 95 95 90 90 90 90 50 50 50 50 84 84 84 84 84 84 84 84
 84 51 51 51 51 51 95 95 95 90 90 90 90 90 50 50 50 84 84 84
 84 84 84 84 84 51 51 51 51 51 51 95 95 12 99 99 99 99 99 50
 50 84 84 84 84 84 84 84 84 84 51 51 51 51 51 51 51 12 12 12
 99 99 99 99 99 99 84 84 84 84 85 85 85 85 85 51 51 51 51 51
 51 12 12 12 12 99 99 99 99 1 1 85 85 85 85 85 85 85 85 85
 85 51 51 51 51 51 91 91 91 91 91 99 99 1 1 1 1 85 85 85
 85 85 85 85 85 85 51 51 51 51 91 91 91 91 91 91 98 98 1 1
 1 1 85 85 85 85 85 85 85 85 85 31 31 31 25 91 91 91 91 91
 91 98 98 1 1 1 1 85 85 85 85 85 85 85 85 31 31 31 31 25
 25 91 91 91 91 91 91 98 1 1 1 1 1 85 85 85 85 85 85 31
 31 31 31 31 25 25 91 91 91 91 91 91 91 1 1 1 1 1 85 85
 85 14 85 31 31 31 31 31 31 31 31 91 91 91 91 91 91 91 22 22
 22 22 22 89 2 2 2 14 31 31 31 31 31 31 31 31 31 91 91 91
 91 91 22 22 22 22 22 22 2 2 2 2 2 31 31 31 31 31 31 31
 31 31 91 91 91 91 91 22 22 22 22 22 22 2 2 2 2 2 31 31
 31 31 31 31 31 31 31 31 91 92 92 92 92 22 22 22 22 22 5 2
 2 2 6 31 31 31 31 31 31 31 31 31 65 65 92 92 92 92 92 22
 22 5 5 5 2 6 6 6 6 6 31 31 31 31 31 31 65 65 65 92
 92 92 92 92 80 5 5 5 5 35 35 35 6 6 6 6 31 31 31 31
 65 65 65 65 65 92 92 92 80 80 80 23 23 23 35 35 35 35 6 6
 6 33 33 31 31 65 65 65 65 65 65 65 92 80 80 80 23 23 23 35
 35 35 35 35 6 6 6 33 33 65 65 65 65 65 65 65 65 65 80 80
 23 23 23 23 35 35 35 35 35 35 6 6 6 52 65 65 65 65 65 65
 65 65 50 50 50 50 23 23 23 35 35 35 35 35 35 6 6 52 52 52
 65 65 65 65 65 65 65 50 66 66 66 23 23 23 35 35 35 35 35 35
 35 52 52 52 52 52 52 52 65 50 50 50 50 50 50 50 50 23 23 23
 84 84 84 84 84 84 52 52 52 52 52 52 52 52 50 50 50 50 50 50
 50 50 50 23 23 84 84 84 84 84 84 53 52 52 52 52 52 52 52 50
 50 50 50 50 50 50 50 50 84 84 84 84 84 84 84 84 53 53 52 52
 52 52 52 52 50 50 50 50 50 50 50 50 50 84 84 84 84 84 84 84
 84 53 53 53 53 52 95 95 95 50 50 50 50 50 50 50 50 84 84 84
 84 84 84 84 84 84 51 51 53 53 95 95 95 95 12 99 99 99 50 50
 50 50 84 84 84 84 84 84 84 84 84 51 51 51 51 51 95 95 12 12
 99 99 99 99 99 50 50 84 84 84 84 84 84 84 84 84 51 51 51 51
 51 12 12 12 12 99 99 99 99 99 99 50 84 84 84 85 85 85 85 85
 85 51 51 51 51 51 12 12 12 12 99 99 99 99 99 99 99 85 85 85
 85 85 85 85 85 85 51 51 51 51 12 12 12 12 12 12 99 99 99 1
 1 1 85 85 85 85 85 85 85 85 85 85 51 31 31 77 77 77 77 77
 91 98 98 98 1 1 1 85 85 85 85 85 85 85 85 85 31 31 31 31
 91 77 77 77 77 91 98 98 98 1 1 1 85 85 85 85 85 85 85 85
 31 31 31 31 31 91 91 91 91 91 91 98 98 98 1 1 1 1 85 85
 85 85 85 85 31 31 31 31 31 31 31 91 91 91 91 91 91 91 22 22
 22 22 22 85 85 2 2 2 31 31 31 31 31 31 31 31 91 91 91 91
 91 91 22 22 22 22 22 22 2 2 2 2 2 31 31 31 31 31 31 31
 31 31 91 91 91 91 91 22 22 22 22 22 22 2 2 2 2 2 2 31
 31 31 31 31 31 31 31 91 91 91 91 91 22 22 22 22 22 2 2 2
 2 2 2 2 31 31 31 31 31 31 31 31 31 91 92 92 92 92 22 22
 22 22 2 2 2 2 2 2 2 31 31 31 31 31 31 31 31 65 92 92
 92 92 92 92 22 22 22 2 2 2 2 2 2 2 33 33 31 31 31 31
 31 65 65 92 92 92 92 92 92 92 23 23 23 2 2 23 35 35 33 33
 33 33 33 31 31 65 65 65 65 92 92 92 92 92 80 23 23 23 23 23