# vtk DataFile Version 2.0
Data set from ImportExport Version 6.5.141.ec284b7a5
ASCII

DATASET RECTILINEAR_GRID
DIMENSIONS 26 26 26
X_COORDINATES 26 float
-3.000000 3.000000 9.000000 15.000000 21.000000 27.000000 33.000000 39.000000 45.000000 51.000000 57.000000 63.000000 69.000000 75.000000 81.000000 87.000000 93.000000 99.000000 105.000000 111.000000 117.000000 
123.000000 129.000000 135.000000 141.000000 147.000000 
Y_COORDINATES 26 float
-3.000000 3.000000 9.000000 15.000000 21.000000 27.000000 33.000000 39.000000 45.000000 51.000000 57.000000 63.000000 69.000000 75.000000 81.000000 87.000000 93.000000 99.000000 105.000000 111.000000 117.000000 
123.000000 129.000000 135.000000 141.000000 147.000000 
Z_COORDINATES 26 float
-3.000000 3.000000 9.000000 15.000000 21.000000 27.000000 33.000000 39.000000 45.000000 51.000000 57.000000 63.000000 69.000000 75.000000 81.000000 87.000000 93.000000 99.000000 105.000000 111.000000 117.000000 
123.000000 129.000000 135.000000 141.000000 147.000000 
CELL_DATA 15625
SCALARS FeatureIds int 1
LOOKUP_TABLE default
 75 75 75 75 75 37 37 37 37 37 37 37 37 37 37 37 37 37 34 34
 34 34 34 34 70 70 75 75 75 91 37 37 37 37 37 37 37 37 37 37
 37 37 34 34 34 34 34 34 34 34 70 30 30 30 91 41 41 41 41 37
 37 37 37 37 37 37 37 34 34 34 34 34 34 34 34 30 30 30 30 91
 91 41 41 41 91 37 37 37 37 37 37 82 34 34 34 34 34 34 34 34
 30 30 30 30 91 91 91 91 91 91 91 88 88 88 37 22 82 34 34 40
 40 40 34 34 34 30 30 30 30 91 91 91 91 91 91 91 88 88 88 22
 22 22 34 34 40 40 40 34 34 30 30 30 30 30 91 91 91 91 91 91
 91 88 88 88 22 22 22 22 34 40 40 40 34 34 30 30 14 14 14 91
 91 91 91 91 91 88 88 88 22 22 22 22 22 34 34 34 34 34 34 30
 14 14 14 14 14 91 91 91 91 91 88 88 88 22 22 22 22 22 34 34
 34 34 34 34 14 14 14 14 14 14 14 91 91 91 91 88 88 88 22 22
 22 22 22 10 34 34 34 34 14 14 14 14 14 14 14 21 21 21 91 53
 53 88 53 22 22 22 22 10 10 10 10 34 34 14 14 14 14 14 14 14
 21 21 21 21 53 53 53 53 43 43 43 43 10 10 10 10 1 1 1 14
 14 14 14 14 14 21 21 21 49 53 53 53 53 43 43 43 43 43 10 10
 10 1 1 1 14 14 14 14 14 14 21 21 21 49 53 53 53 53 43 43
 43 43 43 10 10 10 1 1 1 14 14 14 14 14 5 5 5 5 53 53
 53 53 53 43 43 43 43 43 10 10 10 10 1 1 1 11 11 11 11 5
 5 5 5 5 53 53 53 43 43 43 43 43 43 43 10 10 10 1 1 11
 11 11 11 11 64 5 5 5 74 53 53 43 43 43 43 43 43 43 100 100
 100 100 1 11 11 11 11 11 11 64 64 5 74 74 74 53 43 43 43 43
 43 100 100 100 100 100 100 100 11 11 11 11 11 11 64 64 74 74 74 74
 6 6 43 100 100 100 100 100 100 100 100 100 100 11 11 11 11 11 11 11
 74 74 74 74 74 6 6 6 100 100 100 100 100 100 100 100 100 100 11 11
 47 47 47 47 47 74 74 74 74 37 6 6 6 100 100 100 100 100 100 100
 100 100 100 100 11 47 47 47 47 47 74 74 74 37 37 37 6 6 100 100
 100 100 100 100 100 100 100 100 100 75 75 47 47 47 47 47 37 37 37 37
 37 37 37 37 100 100 100 100 100 100 100 100 100 75 75 75 75 47 47 47
 47 37 37 37 37 37 37 37 37 37 100 100 100 100 100 100 100 100 75 75
 75 75 75 47 47 37 37 37 37 37 37 37 37 37 37 37 100 100 100 100
 100 100 75 75 75 75 75 75 75 75 37 37 37 37 37 37 37 37 37 37
 37 37 60 63 34 34 34 34 70 70 70 75 75 75 75 37 37 37 37 37
 37 37 37 37 37 37 37 60 60 34 34 34 70 70 70 70 30 30 30 91
 41 41 41 41 37 37 37 37 37 37 37 60 60 60 34 34 34 70 70 70
 30 30 30 30 91 91 41 41 41 37 37 37 37 37 37 82 82 60 60 34
 34 34 34 70 70 30 30 30 30 91 91 41 41 41 91 91 37 37 82 82
 82 82 60 60 40 40 34 34 34 34 30 30 30 30 91 91 91 91 91 91
 91 88 82 82 82 82 82 82 34 34 40 40 34 34 30 30 30 30 30 91
 91 91 91 91 91 91 88 88 82 82 82 82 82 34 34 34 34 34 34 30
 30 30 30 14 91 91 91 91 91 91 91 88 88 22 82 82 82 22 34 34
 34 34 34 34 30 14 14 14 14 14 91 91 91 91 91 91 88 88 22 22
 82 22 22 34 34 34 34 34 34 30 14 14 14 14 14 14 91 91 91 91
 88 88 88 22 22 22 22 22 10 34 34 34 34 14 14 14 14 14 14 14
 21 21 21 91 44 44 44 44 43 43 22 43 43 10 1 1 1 1 1 14
 14 14 14 14 14 21 49 49 49 53 53 53 53 43 43 43 43 43 10 1
 1 1 1 1 1 14 14 14 14 14 21 49 49 49 53 53 53 53 43 43
 43 43 43 43 1 1 1 1 1 1 14 14 14 93 93 21 49 49 49 53
 53 53 53 43 43 43 43 43 43 1 1 1 1 1 1 11 11 11 93 93
 5 49 49 49 53 53 53 53 43 43 43 43 43 43 1 1 1 1 1 1
 11 11 11 11 5 5 5 5 49 53 53 53 43 43 43 43 43 43 43 1
 1 1 1 1 11 11 11 11 11 11 5 5 74 74 74 53 43 43 43 43
 43 43 43 43 100 100 1 1 11 11 11 11 11 11 11 74 74 74 74 74
 74 43 43 43 43 43 43 100 100 100 100 100 11 11 11 11 11 11 11 74
 74 74 74 74 74 74 6 43 43 43 100 100 100 100 100 100 100 100 11 11
 11 11 11 11 11 74 74 74 74 74 6 6 6 100 100 100 100 100 100 100
 100 100 100 11 11 47 47 47 47 47 74 74 74 74 74 6 6 6 6 100
 100 100 100 100 100 100 100 100 11 11 47 47 47 47 47 74 74 74 74 37
 37 6 6 6 100 100 100 100 100 100 100 100 100 75 75 75 47 47 47 47
 47 74 74 37 37 37 37 37 37 37 100 100 100 100 100 100 100 75 75 75
 75 75 47 47 47 47 37 37 37 37 37 37 37 37 37 100 100 100 100 100
 100 100 75 75 75 75 75 75 47 47 47 37 37 37 37 37 37 37 37 37
 37 37 100 100 100 100 75 75 75 75 70 75 75 75 75 96 96 37 37 37
 37 37 37 37 37 37 37 60 63 63 70 70 70 70 70 70 75 75 75 96
 96 96 96 37 37 37 37 37 37 37 37 82 60 60 63 70 70 70 70 70
 70 75 30 30 41 41 41 41 37 37 37 37 37 37 37 82 60 60 60 63
 34 70 70 70 70 70 30 30 30 91 91 41 41 41 37 37 37 37 37 82
 82 60 60 60 60 34 70 70 70 70 30 30 30 30 30 91 41 41 41 91
 37 37 37 82 82 82 82 60 60 60 40 70 70 70 70 30 30 30 30 91
 91 91 91 91 91 91 37 82 82 82 82 82 82 82 34 40 40 34 70 30
 30 30 30 30 91 91 91 91 91 91 91 82 82 82 82 82 82 82 82 34
 34 34 34 30 30 30 30 25 25 25 91 91 91 91 91 91 82 82 82 82
 82 82 82 82 82 34 34 34 30 30 30 25 25 25 25 54 54 91 91 91
 19 88 82 82 82 82 82 82 82 82 34 34 1 1 30 14 14 25 25 54
 54 54 54 49 49 44 44 44 82 82 82 82 82 82 1 1 1 1 1 1
 14 54 54 54 54 54 49 49 49 49 44 44 44 43 82 82 82 43 1 1
 1 1 1 1 1 14 54 54 54 54 54 49 49 49 49 44 44 44 43 43
 43 43 43 1 1 1 1 1 1 1 14 14 93 93 93 54 49 49 49 49
 53 53 53 43 43 43 43 43 1 1 1 1 1 1 1 11 93 93 93 93
 93 49 49 49 49 53 53 53 43 43 43 43 43 1 1 1 1 1 1 1
 11 11 93 93 93 93 49 49 49 49 53 53 53 43 43 43 43 43 1 1
 1 1 1 1 1 11 11 11 11 11 11 49 49 49 49 53 53 43 43 43
 43 43 43 43 1 1 1 1 1 11 11 11 11 11 11 11 74 74 74 74
 74 43 43 43 43 43 43 43 43 1 1 1 1 11 11 11 11 11 11 11
 74 74 74 74 74 74 43 43 43 43 43 43 43 100 100 100 1 11 11 11
 11 11 11 11 74 74 74 74 74 74 74 74 43 43 43 43 100 100 100 100
 100 12 11 11 11 11 11 11 11 74 74 74 74 74 74 74 6 6 100 100
 100 100 100 100 100 100 100 11 11 11 47 47 47 47 47 74 74 74 74 74
 74 6 6 6 100 100 100 100 100 100 100 100 100 47 47 47 47 47 47 47
 74 74 74 74 74 74 6 6 6 100 100 100 100 100 100 100 100 100 47 47
 75 47 47 47 47 47 74 74 37 37 37 37 37 37 37 100 100 100 100 100
 100 100 75 75 75 75 75 47 47 47 47 37 37 37 37 37 37 37 37 37
 37 100 63 63 63 63 70 70 75 75 75 75 75 47 47 47 37 37 37 37
 37 37 37 37 37 37 37 63 63 63 63 70 70 70 75 70 75 75 75 75
 96 96 96 37 37 37 37 37 37 37 37 63 63 63 63 63 70 70 70 70
 70 75 75 75 75 96 96 96 96 37 37 37 37 37 37 82 82 60 63 63
 70 70 70 70 70 70 75 75 75 96 96 96 96 96 37 37 37 37 37 82
 82 60 60 60 63 70 70 70 70 70 70 30 30 30 30 91 41 41 41 37
 37 37 37 82 82 82 60 60 60 60 52 70 70 70 70 30 30 30 30 30
 91 41 41 41 37 37 37 82 82 82 82 82 60 60 60 52 52 70 70 70
 30 30 30 30 8 91 91 91 91 91 82 82 82 82 82 82 82 82 82 82
 72 52 72 52 30 30 30 30 30 25 91 91 91 91 91 19 82 82 82 82
 82 82 82 82 82 72 72 72 30 30 30 30 25 25 25 25 91 91 91 19
 19 82 82 82 82 82 82 82 82 82 72 72 72 30 30 25 25 25 25 25
 54 54 49 49 49 19 19 82 82 82 82 82 82 82 82 1 1 1 1 30
 54 54 25 25 54 54 54 49 49 49 49 44 44 82 82 82 82 82 82 1
 1 1 1 1 1 54 54 54 54 54 54 49 49 49 49 44 44 44 82 26
 26 82 82 1 1 1 1 1 1 1 54 54 54 54 54 54 49 49 49 49
 44 44 44 44 26 26 26 26 1 1 1 1 1 1 1 54 54 93 93 93
 54 49 49 49 49 49 44 44 43 43 43 43 43 1 1 1 1 1 1 1
 11 93 93 93 93 54 49 49 49 49 49 53 43 43 43 43 43 43 1 1
 1 1 1 1 1 11 11 93 93 93 93 49 49 49 49 49 53 43 43 43
 43 43 43 1 1 1 1 1 1 1 11 11 11 11 93 93 49 49 49 49
 49 43 43 43 43 43 43 43 1 1 1 1 1 1 11 11 11 11 11 11
 74 74 74 74 74 74 43 43 43 43 43 43 43 43 1 1 1 1 11 11
 11 11 11 11 11 74 74 74 74 74 74 43 43 43 43 43 43 43 100 1
 12 12 12 11 11 11 11 11 11 74 74 74 74 74 74 74 74 38 43 43
 43 43 43 100 12 12 12 12 11 11 11 11 11 11 74 74 74 74 74 74
 74 6 6 100 100 100 100 100 100 100 100 12 12 11 11 47 47 47 47 74
 74 74 74 74 74 74 6 6 6 100 100 100 100 100 100 100 100 12 47 47
 47 47 47 47 47 74 74 74 74 74 74 6 6 6 100 100 100 100 100 99
 99 100 47 47 47 75 47 47 47 47 47 74 74 74 37 37 37 37 37 37
 100 100 100 63 99 99 99 99 47 47 75 75 47 47 47 47 74 37 37 37
 37 37 37 37 37 37 63 63 63 63 63 70 70 70 75 75 75 75 47 47
 47 37 37 37 37 37 37 37 37 37 37 63 63 63 63 63 70 70 70 70
 70 75 75 75 75 96 96 96 37 37 37 37 37 37 37 82 63 63 63 63
 52 70 70 70 70 70 75 75 75 75 96 96 96 96 37 37 37 37 37 82
 82 82 63 63 63 52 70 70 70 70 70 75 75 75 94 94 94 94 94 37
 37 37 37 82 82 82 82 60 60 52 52 70 70 70 70 70 30 8 8 94
 94 94 94 94 94 37 37 82 82 82 82 82 60 60 52 52 52 52 52 70
 30 30 8 8 8 94 94 94 94 94 37 82 82 82 82 82 82 82 60 52
 52 52 52 52 52 30 8 8 8 8 8 94 94 94 94 82 82 82 82 82
 82 82 82 82 82 72 72 72 52 52 13 13 13 8 8 8 59 94 59 19
 19 82 82 82 82 82 82 82 82 82 72 72 72 52 52 13 13 13 25 54
 54 54 54 59 19 19 19 82 82 82 82 82 82 82 82 72 72 72 52 52
 13 13 25 25 54 54 54 54 19 19 19 19 19 82 82 82 82 82 82 82
 72 72 72 71 71 13 54 54 54 54 54 54 49 49 19 19 19 19 82 82
 82 82 82 82 82 1 1 1 71 71 54 54 54 54 54 54 54 49 49 49
 19 44 19 19 26 26 26 26 26 1 1 1 1 71 71 54 54 54 54 54
 54 49 49 49 49 44 44 44 19 26 26 26 26 26 1 1 1 1 71 71
 54 54 54 54 54 54 49 49 49 49 49 44 44 44 26 26 26 26 1 1
 1 1 1 1 1 11 54 93 93 93 54 49 49 49 49 49 44 43 43 43
 43 43 43 1 1 1 1 1 1 1 11 11 93 93 93 54 49 49 49 49
 49 53 43 43 43 43 43 43 1 1 1 1 1 1 78 11 11 11 11 11
 11 49 49 49 49 49 43 43 43 43 43 43 43 1 1 1 1 1 78 11
 11 11 11 11 11 11 74 74 74 74 74 43 38 38 43 43 43 43 1 1
 1 1 1 11 11 11 11 11 11 11 74 74 74 74 74 74 74 38 38 38
 43 43 43 12 12 12 12 12 11 11 11 11 11 11 74 74 74 74 74 74
 74 74 38 38 38 43 43 43 12 12 12 12 12 12 11 11 11 11 11 74
 74 74 74 74 74 74 74 38 38 38 89 89 99 99 12 12 12 12 12 11
 47 47 47 47 74 74 74 74 74 74 74 74 6 38 89 89 89 99 99 99
 12 12 12 12 47 47 47 47 47 47 74 74 74 74 74 74 74 6 6 89
 89 99 99 99 99 99 12 12 47 47 47 47 47 47 47 47 74 74 74 37
 37 37 37 37 37 37 99 99 99 99 99 99 99 47 47 75 75 47 47 47
 47 74 74 37 37 37 37 37 37 37 37 63 63 63 63 99 99 70 70 47
 75 75 75 47 47 47 37 37 37 37 37 37 37 37 37 37 63 63 63 63
 63 70 70 70 70 70 75 75 75 75 96 96 96 37 37 37 37 98 98 98
 98 63 63 63 63 52 52 70 70 70 70 75 75 75 75 94 94 94 94 37
 37 98 98 98 98 82 82 63 63 52 52 52 52 70 70 70 75 75 8 8
 94 94 94 94 94 37 98 98 82 82 82 82 82 82 52 52 52 52 52 52
 8 8 8 8 8 94 94 94 94 94 58 98 82 82 82 82 82 82 82 52
 52 52 52 52 52 8 8 8 8 8 94 94 94 94 58 58 82 82 82 82
 82 82 82 82 52 52 52 52 52 52 8 8 8 8 8 8 94 94 94 58
 82 82 82 82 82 82 82 82 82 52 72 72 72 52 52 13 13 8 8 8
 8 59 59 59 19 19 19 82 82 82 82 82 82 82 82 72 72 72 52 52
 13 13 13 8 8 8 59 59 59 19 19 19 19 82 82 82 82 82 82 82
 72 72 72 52 52 13 13 13 54 54 54 59 59 59 19 19 19 19 82 82
 82 82 82 82 82 72 72 72 52 71 13 54 54 54 54 54 54 59 19 19
 19 19 19 82 82 82 82 82 82 82 1 1 1 71 71 54 54 54 54 54
 54 54 49 49 19 19 19 19 19 26 26 26 26 26 1 1 1 71 71 71
 54 54 54 54 54 54 54 49 49 49 31 31 31 31 26 26 26 26 26 1
 1 1 71 71 71 54 54 54 54 54 54 49 49 49 49 31 31 31 31 26
 26 26 26 26 1 1 1 1 71 71 78 54 54 54 54 54 49 49 49 49
 49 31 31 31 26 26 26 26 1 1 1 1 1 1 78 78 11 93 93 93
 54 49 49 49 49 49 31 43 43 43 43 43 43 1 1 1 1 1 78 78
 11 11 11 11 11 79 79 79 79 79 49 38 38 43 43 43 43 43 1 1
 1 1 78 78 78 11 11 11 11 11 79 79 79 79 79 79 38 38 38 38
 43 43 92 92 1 1 1 78 78 11 11 11 11 11 11 79 79 79 79 79
 79 79 38 38 38 43 92 92 92 12 12 12 12 11 11 11 11 11 11 74
 74 74 74 79 79 79 79 38 38 38 38 89 99 99 12 12 12 12 12 11
 11 11 11 11 74 74 74 74 74 79 79 79 79 38 38 89 89 99 99 12
 12 12 12 12 11 47 47 47 47 74 74 74 74 74 79 79 79 79 38 89
 89 89 99 99 99 12 12 12 12 12 47 47 47 47 47 74 74 74 79 79
 79 79 79 6 89 89 99 99 99 99 99 12 12 12 47 47 47 47 47 47
 47 74 74 79 79 79 37 37 37 37 89 99 99 99 99 99 99 99 47 47
 47 75 47 47 47 47 74 74 37 37 37 37 37 37 98 37 99 99 99 99
 99 99 99 47 47 75 75 75 47 47 47 37 37 37 37 37 37 37 37 98
 37 63 63 63 63 99 99 70 70 70 70 75 75 75 75 94 94 94 94 98
 98 98 98 98 98 98 98 98 63 52 52 52 52 52 52 70 75 75 8 8
 94 94 94 94 58 98 98 98 98 98 98 98 82 52 52 52 52 52 52 52
 48 8 8 8 8 94 94 94 94 58 58 98 98 98 98 82 82 82 52 52
 52 52 52 52 52 8 8 8 8 8 94 94 94 94 58 58 98 98 82 82
 82 82 82 52 52 52 52 52 52 52 8 8 8 8 8 8 94 94 58 58
 58 98 82 82 82 82 82 82 82 52 52 52 52 52 52 8 8 8 8 8
 8 8 59 59 58 58 82 82 82 82 82 82 82 82 52 52 52 52 52 52
 13 13 8 8 8 8 59 59 59 59 19 19 82 82 82 82 82 82 82 52
 52 52 52 52 52 13 13 8 8 8 8 59 59 59 19 19 19 19 82 82
 33 82 82 82 52 52 52 52 52 52 13 13 54 54 54 54 59 59 59 19
 19 19 19 19 82 33 33 82 82 82 52 52 52 52 36 13 54 54 54 54
 54 54 59 59 19 19 19 19 19 19 82 82 82 82 36 36 36 36 71 71
 54 54 54 54 54 54 54 49 19 19 31 19 19 19 26 26 26 82 82 36
 36 36 71 71 71 54 54 54 54 54 54 54 49 31 31 31 31 31 31 26
 26 26 26 26 1 1 1 71 71 71 54 54 54 54 54 54 54 49 31 31
 31 31 31 31 26 26 26 26 26 1 1 1 1 71 71 78 54 54 54 54
 54 54 49 49 31 31 31 31 31 26 92 92 92 92 1 1 1 1 78 78
 78 11 93 93 93 79 79 79 79 79 31 31 31 31 92 92 92 92 92 92
 1 1 78 78 78 78 11 11 11 79 79 79 79 79 79 31 31 38 38 38
 92 92 92 92 92 1 1 78 78 78 11 11 11 11 79 79 79 79 79 79
 79 79 38 38 38 92 92 92 92 92 1 1 78 78 78 11 11 11 11 79
 79 79 79 79 79 79 79 38 38 38 92 92 92 92 92 12 12 12 12 11
 11 11 11 11 79 79 79 79 79 79 79 79 38 38 38 89 92 99 99 99
 12 12 12 12 11 62 62 62 62 79 79 79 79 79 79 79 79 79 38 89
 89 89 99 99 99 12 12 12 12 12 62 62 62 73 79 79 79 79 79 79
 79 79 79 56 89 89 99 99 99 99 99 12 12 12 12 47 47 47 73 73
 79 79 79 79 79 79 79 79 56 89 89 99 99 99 99 99 99 99 12 12
 47 47 47 47 47 79 79 79 79 79 79 79 79 98 98 89 99 99 99 99
 99 99 99 99 47 47 47 47 47 47 47 79 79 79 79 79 98 98 98 98
 98 99 99 99 99 99 99 99 99 47 47 47 75 47 47 47 79 79 79 37
 98 98 98 98 98 98 63 99 99 99 99 52 52 70 70 48 48 48 48 48
 94 94 94 58 98 98 98 98 98 98 98 98 98 52 52 52 52 52 52 52
 48 48 48 48 8 94 94 94 58 58 98 98 98 98 98 98 98 98 52 52
 52 52 52 52 52 48 48 8 8 8 94 94 94 58 58 58 98 98 98 98
 98 98 82 52 52 52 52 52 52 52 8 8 8 8 8 94 94 94 58 58
 58 98 98 98 98 82 82 82 52 52 52 52 52 52 52 8 8 8 8 8
 8 8 94 58 58 58 98 98 82 82 82 82 82 52 52 52 52 52 52 52
 8 8 8 8 8 8 59 59 59 58 58 82 82 82 82 82 82 82 82 52
 52 52 52 52 52 13 8 8 8 8 8 59 59 59 59 19 19 82 82 82
 33 82 82 82 52 52 52 52 52 52 13 8 8 8 8 8 59 59 59 19
 19 19 19 82 33 33 33 82 82 52 52 52 52 52 52 13 8 8 8 8
 59 59 59 59 19 19 19 19 19 33 33 33 33 82 36 36 36 36 36 36
 13 54 54 54 54 54 59 59 19 19 19 19 19 19 19 33 33 82 36 36
 36 36 36 36 36 54 54 54 54 54 54 54 59 19 19 19 19 19 19 19
 26 26 82 36 36 36 36 36 36 36 54 54 54 54 54 54 54 31 31 31
 31 31 31 31 31 26 26 92 92 36 36 36 36 71 71 55 55 54 54 54
 54 54 31 31 31 31 31 31 31 31 92 92 92 92 92 36 36 1 71 78
 55 55 55 54 54 54 79 79 31 31 31 31 31 31 92 92 92 92 92 92
 92 1 78 78 78 78 55 55 55 79 79 79 79 79 79 31 31 31 31 92
 92 92 92 92 92 92 1 78 78 78 55 55 55 55 79 79 79 79 79 79
 79 79 79 38 92 92 92 92 92 92 92 1 78 78 78 55 55 55 62 79
 79 79 79 79 79 79 79 79 38 92 92 92 92 92 92 92 92 78 78 78
 62 62 62 62 79 79 79 79 79 79 79 79 79 38 92 92 92 92 92 92
 12 12 12 78 62 62 62 62 62 79 79 79 79 79 79 79 79 79 56 56
 92 92 92 99 99 99 12 12 12 62 62 62 62 62 79 79 79 79 79 79
 79 79 79 56 56 56 99 99 99 99 99 99 12 12 62 62 62 62 73 73
 79 79 79 79 79 79 79 79 56 56 56 99 99 99 99 99 99 99 62 62
 62 62 73 73 73 73 79 79 79 79 79 79 79 56 56 56 99 99 99 99
 99 99 99 99 62 62 73 73 73 73 73 79 79 79 79 79 79 79 98 98
 56 99 99 99 99 99 99 99 99 62 47 47 73 73 73 73 79 79 79 79
 79 98 98 98 98 98 99 99 99 99 99 99 99 99 47 47 47 75 73 73
 73 79 79 79 79 98 98 98 98 98 98 98 99 99 99 99 52 52 52 70
 48 48 48 48 48 48 98 98 98 98 98 98 98 98 98 98 98 98 52 52
 52 52 52 52 52 48 48 48 48 48 48 94 58 58 98 98 98 98 98 98
 98 98 98 52 52 52 52 52 52 52 48 48 48 48 8 8 94 58 58 58
 98 98 98 98 98 98 98 98 52 52 52 52 52 52 52 48 8 8 8 8
 8 94 58 58 58 58 98 98 98 98 98 82 82 52 52 52 52 52 52 52
 8 8 8 8 8 8 8 58 58 58 58 98 98 98 82 82 82 82 52 52
 52 52 52 52 52 8 8 8 8 8 8 59 59 59 58 58 98 82 82 82
 82 82 82 52 52 52 52 52 52 52 8 8 8 8 8 8 59 59 59 59
 19 19 19 82 33 33 82 82 82 52 52 52 52 52 52 8 8 8 8 8
 8 59 59 59 19 19 19 19 19 33 33 33 82 82 36 36 36 36 36 36
 8 8 8 8 8 59 59 59 59 19 19 19 19 19 33 33 33 33 36 36
 36 36 36 36 36 8 54 54 54 54 59 59 59 19 19 19 19 19 19 19
 33 33 33 36 36 36 36 36 36 36 54 54 54 54 54 54 59 59 19 19
 19 19 19 19 19 26 33 36 36 36 36 36 36 36 36 55 55 55 54 54
 54 54 31 31 31 31 31 31 31 19 26 92 92 36 36 36 36 36 36 36
 55 55 55 55 54 54 54 31 31 31 31 31 31 31 31 92 92 92 92 92
 36 36 36 36 55 55 55 55 55 55 79 79 79 79 31 31 31 31 31 92
 92 92 92 92 92 92 36 36 78 55 55 55 55 55 55 79 79 79 79 79
 79 31 31 31 92 92 92 92 92 92 92 92 78 78 55 55 55 55 55 79
 79 79 79 79 79 79 79 79 79 92 92 92 92 92 92 92 92 78 78 55
 55 55 55 55 79 79 79 79 79 79 79 79 79 79 92 92 92 92 92 92
 92 92 78 78 55 62 62 62 62 79 79 79 79 79 79 79 79 79 79 92
 92 92 92 92 92 92 92 12 78 62 62 62 62 62 79 79 79 79 79 79
 79 79 79 56 56 56 92 92 92 99 99 99 12 62 62 62 62 62 62 73
 79 79 79 79 79 79 79 79 56 56 56 56 99 99 99 99 99 99 62 62
 62 62 62 73 73 79 79 79 79 79 79 79 56 56 56 56 56 99 99 99
 99 99 99 62 62 62 62 73 73 73 73 79 79 79 79 79 79 79 56 56
 56 99 99 99 99 99 99 99 62 62 62 73 73 73 73 73 79 79 79 79
 79 79 79 56 56 56 99 99 99 99 99 99 99 99 62 62 73 73 73 73
 73 79 79 79 79 79 98 98 98 98 98 98 99 99 99 99 99 99 99 62
 48 73 73 73 73 73 79 79 79 79 98 98 98 98 98 98 98 98 99 99
 99 52 52 52 52 48 48 48 48 48 48 48 98 98 98 98 98 98 98 98
 98 98 98 98 52 52 52 52 52 48 48 48 48 48 48 48 98 98 98 98
 98 98 98 98 98 98 98 98 52 52 52 52 52 52 48 48 48 48 48 48
 48 98 98 98 98 98 98 98 98 98 98 98 98 52 52 52 52 52 52 48
 48 48 48 48 8 8 8 58 58 58 98 98 98 98 98 98 98 98 52 52
 52 52 52 52 52 48 8 8 8 8 8 8 68 68 68 98 98 98 98 98
 82 82 82 52 52 52 52 52 52 52 8 8 8 8 8 8 59 59 68 68
 68 68 82 82 82 82 82 82 52 52 52 52 52 52 52 8 8 8 8 8
 8 59 59 59 68 68 68 19 82 82 82 82 82 36 36 36 36 36 36 36
 8 8 8 8 8 8 59 59 59 19 19 19 19 19 33 33 33 82 36 36
 36 36 36 36 36 36 8 8 8 8 8 59 59 59 19 19 19 19 19 33
 33 33 36 36 36 36 36 36 36 36 36 16 16 8 8 8 59 59 19 19
 19 19 19 19 19 33 33 36 36 36 36 36 36 36 36 36 55 55 54 54
 54 59 19 19 19 19 19 19 19 19 19 36 36 36 36 36 36 36 36 36
 55 55 55 55 54 54 54 31 31 31 31 31 31 19 19 92 92 36 36 36
 36 36 36 36 36 55 55 55 55 55 55 79 31 31 31 31 31 31 31 31
 92 92 92 92 36 36 36 36 36 55 55 55 55 55 55 55 79 79 79 31
 31 31 31 31 92 92 92 92 92 92 92 36 36 55 55 55 55 55 55 55
 79 79 79 79 79 79 31 31 31 92 92 92 92 92 92 92 36 36 55 55
 55 55 55 55 55 79 79 79 79 79 79 79 79 92 92 92 92 92 92 92
 92 92 55 55 55 55 55 55 55 79 79 79 79 79 79 79 79 79 79 92
 92 92 92 92 92 92 92 55 55 55 62 62 62 62 79 79 79 79 79 79
 79 79 79 79 92 92 92 92 92 92 92 92 92 62 62 62 62 62 62 79
 79 79 79 79 79 79 79 79 56 56 56 92 92 92 92 99 99 99 62 62
 62 62 62 62 73 79 79 79 79 79 79 79 79 56 56 56 56 99 99 99
 99 99 99 62 62 62 62 62 73 73 79 79 79 79 79 79 79 56 56 56
 56 56 99 99 99 99 99 99 62 62 62 62 73 73 73 73 79 79 79 79
 79 79 56 56 56 56 56 99 99 99 99 99 99 62 62 62 73 73 73 73
 73 79 79 79 79 79 79 56 56 56 56 56 99 99 99 99 99 99 99 62
 62 73 73 73 73 73 79 79 79 79 79 98 98 98 98 98 98 99 99 99
 99 99 99 99 48 48 48 48 73 73 73 79 79 79 79 98 98 98 98 98
 98 98 98 99 99 99 52 52 52 48 48 48 48 48 48 48 48 68 98 98
 98 98 98 98 98 98 98 98 98 52 52 52 52 48 48 48 48 48 48 48
 48 68 68 68 98 98 98 98 98 98 98 98 98 98 52 52 52 52 48 48
 48 48 48 48 48 48 68 68 68 98 98 98 98 98 98 98 98 98 52 52
 52 52 52 52 48 48 48 48 48 48 8 68 68 68 68 98 98 98 98 98
 98 98 98 52 52 52 52 52 52 48 48 48 8 8 8 8 68 68 68 68
 68 68 98 98 98 98 82 82 52 52 52 52 52 52 52 8 8 8 8 8
 8 59 68 68 68 68 68 68 68 82 82 82 82 36 36 36 36 36 36 36
 16 16 16 16 16 16 16 68 68 68 68 68 68 68 82 82 82 82 36 36
 36 36 36 36 36 36 16 16 16 16 16 16 68 68 68 68 68 68 19 33
 33 33 36 36 36 36 36 36 36 36 36 16 16 16 16 16 16 59 68 19
 19 19 19 19 28 33 33 36 36 36 36 36 36 36 36 36 16 16 16 16
 16 16 59 19 19 19 19 19 19 19 28 36 36 36 36 36 36 36 36 36
 4 4 16 16 16 16 16 19 19 19 19 19 19 24 24 24 36 36 36 36
 36 36 36 36 36 4 55 55 55 55 55 79 19 19 19 19 19 24 24 24
 24 36 36 36 36 36 36 36 36 4 55 55 55 55 55 55 79 79 31 31
 31 31 24 24 24 92 92 92 92 36 36 36 36 4 4 55 55 55 55 55
 55 79 79 79 79 31 31 24 24 92 92 92 92 92 92 36 36 4 4 55
 55 55 55 55 55 79 79 79 79 79 79 79 79 92 92 92 92 92 92 92
 92 4 4 55 55 55 55 55 55 55 79 79 79 79 79 79 79 79 92 92
 92 92 92 92 92 92 92 4 55 55 55 55 55 55 79 79 79 79 79 79
 79 79 79 79 92 92 92 92 92 92 92 92 55 55 55 62 62 62 62 79
 79 79 79 79 79 79 79 79 67 92 92 92 92 92 92 92 92 55 55 55
 62 62 62 62 79 79 79 79 79 79 79 79 79 67 56 67 92 92 92 92
 92 3 62 62 62 62 62 62 62 73 79 79 79 79 79 79 79 79 56 56
 56 67 67 67 99 99 99 62 62 62 62 62 62 73 73 79 79 79 79 79
 79 79 56 56 56 56 56 67 99 99 99 99 62 62 62 62 73 73 73 73
 73 79 79 79 79 79 79 56 56 56 56 67 67 99 99 99 99 99 62 62
 62 73 73 73 73 73 79 79 79 79 79 79 56 56 56 56 67 67 99 99
 99 99 99 62 62 48 73 73 73 73 73 79 79 79 79 79 98 98 98 98
 98 67 67 99 99 99 99 99 48 48 48 48 48 48 73 73 79 79 79 79
 98 98 98 98 98 98 98 98 98 99 99 52 52 48 48 48 48 48 48 48
 48 68 68 98 98 98 98 98 98 98 98 98 98 98 52 52 52 48 48 48
 48 48 48 48 48 48 68 68 68 98 98 98 98 98 98 98 98 98 98 52
 52 52 52 48 48 48 48 48 48 48 48 68 68 68 68 98 98 98 98 98
 98 98 98 52 52 52 52 52 48 48 48 48 48 48 48 68 68 68 68 68
 68 98 98 98 98 98 98 32 32 52 52 52 52 48 48 48 48 16 16 16
 16 68 68 68 68 68 68 68 98 98 98 32 32 32 52 52 52 52 52 48
 16 16 16 16 16 16 16 68 68 68 68 68 68 68 98 98 82 36 36 36
 36 36 36 36 36 16 16 16 16 16 16 68 68 68 68 68 68 68 68 68
 28 82 36 36 36 36 36 36 36 36 16 16 16 16 16 16 16 68 68 68
 68 68 68 68 28 28 28 36 36 36 36 36 36 36 36 36 16 16 16 16
 16 16 68 68 68 68 68 24 24 28 28 28 36 36 36 36 36 36 36 36
 4 16 16 16 16 16 16 68 68 68 19 24 24 24 28 28 28 36 36 36
 36 36 36 36 36 4 4 16 16 16 16 16 19 19 19 24 24 24 24 24
 28 28 36 36 36 36 36 36 36 4 4 4 4 16 16 16 16 90 90 90
 19 24 24 24 24 24 24 36 36 36 36 36 36 4 4 4 55 55 55 55
 55 79 79 90 90 24 24 24 24 24 24 92 92 36 36 36 36 4 4 4
 55 55 55 55 55 55 79 79 79 81 81 24 24 24 24 92 92 92 92 92
 4 4 4 4 55 55 55 55 55 55 55 79 79 79 81 81 81 24 24 92
 92 92 92 92 92 92 4 4 55 55 55 55 55 55 55 79 79 79 79 79
 79 79 81 92 92 92 92 92 92 92 92 3 3 55 55 55 55 55 39 39
 79 79 79 79 79 79 79 79 92 92 92 92 92 92 92 92 3 3 55 55
 55 55 39 39 39 79 79 79 79 79 79 79 79 67 67 67 92 92 92 92
 92 3 3 3 55 62 62 39 39 39 79 79 79 79 79 79 79 79 67 67
 67 67 67 67 67 3 3 3 3 62 62 62 62 62 79 79 79 79 79 79
 79 79 79 67 67 67 67 67 67 67 67 3 3 62 62 62 62 62 73 73
 79 79 79 79 79 79 79 67 67 67 67 67 67 67 67 99 99 86 62 62
 15 15 73 73 73 79 79 79 79 79 79 79 67 67 67 67 67 67 67 67
 99 99 86 15 15 15 73 73 73 73 73 79 79 79 79 79 79 67 67 67
 67 67 67 67 67 99 99 86 86 15 48 48 73 73 73 73 79 79 79 79
 98 98 98 98 67 67 67 67 67 67 99 99 86 48 48 48 48 48 48 73
 73 79 79 79 98 98 98 98 98 98 98 98 98 98 98 99 52 48 48 48
 48 48 48 48 48 48 68 68 68 98 98 98 98 98 98 98 98 98 98 29
 29 29 48 48 48 48 48 48 48 48 48 68 68 68 98 98 98 98 98 98
 98 98 98 32 29 29 29 48 48 48 48 48 48 48 48 68 68 68 68 68
 68 68 98 98 98 98 98 98 32 29 29 29 29 48 48 48 48 48 48 48
 68 68 68 68 68 68 68 68 98 98 98 32 32 32 32 29 29 29 48 48
 48 16 16 16 16 68 68 68 68 68 68 68 68 68 98 98 32 32 32 32
 29 29 36 36 48 16 16 16 16 16 16 68 68 68 68 68 68 68 68 68
 61 32 32 32 32 36 36 36 36 36 16 16 16 16 16 16 68 68 68 68
 68 68 68 68 68 68 32 32 32 36 36 36 36 36 36 16 16 16 16 16
 16 16 68 68 68 68 68 68 68 28 28 28 28 36 36 36 36 36 36 36
 16 16 16 16 16 16 16 68 68 68 68 68 24 24 28 28 28 28 36 36
 36 36 36 36 36 4 16 16 16 16 16 16 68 68 68 68 24 24 24 28
 28 28 28 36 36 36 36 36 36 4 4 4 16 16 16 16 16 90 90 90
 24 24 24 24 24 28 28 28 36 36 36 36 36 4 4 4 4 4 16 16
 16 16 90 90 90 90 24 24 24 24 24 24 36 36 36 36 36 4 4 4
 4 4 55 55 55 16 81 81 81 90 24 24 24 24 24 24 24 36 36 36
 4 4 4 4 4 55 55 55 55 55 55 81 81 81 81 81 24 24 24 24
 24 92 92 92 4 4 4 4 4 4 55 55 55 55 55 55 81 81 81 81
 81 81 24 24 24 92 92 92 92 92 4 4 4 4 55 55 55 55 39 39
 39 81 81 81 81 81 81 81 24 92 92 92 92 92 92 92 3 3 55 55
 55 55 39 39 39 39 79 81 81 81 81 81 81 67 67 67 92 92 92 92
 3 3 3 3 55 55 39 39 39 39 39 79 79 79 79 79 79 67 67 67
 67 67 67 67 67 3 3 3 3 3 62 39 39 39 39 39 79 79 79 79
 79 79 67 67 67 67 67 67 67 67 3 3 3 3 3 15 15 39 39 39
 79 79 79 79 79 79 79 67 67 67 67 67 67 67 67 3 3 3 3 15
 15 15 15 15 15 79 79 79 79 79 79 79 67 67 67 67 67 67 67 67
 67 3 86 86 15 15 15 15 15 15 79 79 79 79 79 79 79 67 67 67
 67 67 67 67 67 67 86 86 86 15 15 15 15 15 15 73 79 79 79 79
 79 51 67 67 67 67 67 67 67 67 67 86 86 86 15 48 48 15 15 73
 73 79 79 79 79 51 51 51 67 67 67 67 67 67 67 67 86 86 86 15
 48 48 48 48 48 48 79 79 79 51 51 51 98 98 98 98 98 98 67 67
 67 86 86 48 48 48 48 48 48 48 68 68 68 68 68 98 98 98 98 98
 98 98 98 32 29 29 29 29 48 48 48 48 48 48 48 68 68 68 68 68
 98 98 98 98 98 98 98 32 32 29 29 29 29 29 48 48 48 48 48 48
 68 68 68 68 68 68 68 68 98 98 98 98 32 32 29 29 29 29 29 48
 48 48 48 48 68 68 68 68 68 68 68 68 68 68 98 7 32 32 32 32
 29 29 29 29 48 16 16 16 16 16 68 68 68 68 68 68 68 68 68 68
 7 32 32 32 32 29 29 29 36 48 16 16 16 16 16 16 68 68 68 68
 68 68 68 68 68 61 32 32 32 32 32 29 36 36 36 16 16 16 16 16
 16 16 68 68 68 68 68 68 68 61 61 32 32 32 32 36 36 36 36 36
 16 16 16 16 16 16 16 68 68 68 68 68 68 68 28 28 28 28 32 36
 36 36 36 36 36 16 16 16 16 16 16 16 68 68 68 68 69 69 28 28
 28 28 28 36 36 36 36 36 36 4 4 16 16 16 16 16 16 68 68 68
 69 69 24 24 28 28 28 28 36 36 36 36 36 4 4 4 4 16 16 16
 16 16 90 90 90 69 24 24 24 24 28 28 28 36 36 36 36 4 4 4
 4 4 4 16 16 16 16 90 90 90 90 24 24 24 24 24 28 28 36 36
 4 4 4 4 4 4 4 4 55 55 81 81 81 81 90 81 24 24 24 24
 24 24 24 36 4 4 4 4 4 4 4 4 55 55 55 81 81 81 81 81
 81 24 24 24 24 24 24 92 92 4 4 4 4 4 4 55 55 55 39 39
 81 81 81 81 81 81 81 24 24 24 24 92 92 92 4 4 4 4 4 4
 55 55 39 39 39 39 81 81 81 81 81 81 81 81 24 67 67 67 92 92
 3 3 3 3 55 55 39 39 39 39 39 81 81 81 81 81 81 81 67 67
 67 67 67 67 67 3 3 3 3 3 39 39 39 39 39 39 81 81 81 81
 81 81 67 67 67 67 67 67 67 67 3 3 3 3 3 15 39 39 39 39
 39 79 79 81 81 81 81 67 67 67 67 67 67 67 67 3 3 3 3 3
 15 15 15 39 39 39 79 79 79 79 79 67 67 67 67 67 67 67 67 67
 67 3 3 3 15 15 15 15 15 15 79 79 79 79 79 79 67 67 67 67
 67 67 67 67 67 67 3 86 86 15 15 15 15 15 15 15 79 79 79 79
 79 67 67 67 67 67 67 67 67 67 67 67 86 86 86 15 15 15 15 15
 15 79 79 79 79 51 51 51 67 67 67 67 67 67 67 67 86 86 86 15
 15 15 15 15 15 15 79 79 2 51 51 51 51 67 67 67 67 67 67 67
 67 86 86 86 15 48 48 48 48 48 48 79 79 2 51 51 51 51 98 98
 67 67 67 67 67 67 57 86 15 15 48 48 48 48 48 68 68 68 68 68
 45 45 45 98 46 46 46 46 29 29 29 29 29 29 48 48 48 48 48 48
 68 68 68 68 68 45 45 45 98 98 7 46 32 29 29 29 29 29 29 48
 48 48 48 48 68 68 68 68 68 68 68 45 45 98 7 7 7 32 32 29
 29 29 29 29 29 48 48 48 16 68 68 68 68 68 68 68 68 68 68 7
 7 7 32 32 29 29 29 29 29 29 16 16 16 16 16 68 68 68 68 68
 68 68 68 68 7 7 32 32 32 32 29 29 29 29 29 16 16 16 16 16
 16 68 68 68 68 68 68 68 68 61 61 32 32 32 32 29 29 29 29 29
 16 16 16 16 16 16 68 68 68 68 68 68 68 61 61 61 61 32 32 32
 36 36 36 36 36 16 16 16 16 16 16 16 68 68 68 68 68 68 61 61
 61 61 61 32 36 36 36 36 36 4 4 16 16 16 16 16 16 68 68 68
 69 69 69 69 28 28 28 28 36 36 36 36 36 4 4 4 16 16 16 16
 16 16 68 68 69 69 69 69 24 28 28 28 28 36 36 36 36 4 4 4
 4 4 16 16 16 16 16 90 90 69 69 69 24 24 24 28 28 28 36 36
 4 4 4 4 4 4 4 4 16 16 16 16 90 90 90 69 24 24 24 24
 24 28 28 36 4 4 4 4 4 4 4 4 4 4 9 81 81 81 81 81
 81 24 24 24 24 24 24 24 4 4 4 4 4 4 4 4 4 4 39 9
 81 81 81 81 81 81 81 24 24 24 24 24 24 4 4 4 4 4 4 4
 4 4 39 39 39 81 81 81 81 81 81 81 81 24 24 24 67 67 4 4
 4 4 4 4 4 55 39 39 39 39 39 81 81 81 81 81 81 81 81 67
 67 67 67 67 67 18 3 3 3 3 39 39 39 39 39 39 81 81 81 81
 81 81 81 67 67 67 67 67 67 67 18 3 3 3 3 39 39 39 39 39
 39 81 81 81 81 81 81 81 67 67 67 67 67 67 67 18 18 3 3 3
 15 39 39 39 39 39 81 81 81 81 81 81 67 67 67 67 67 67 67 67
 18 3 3 3 3 15 15 15 39 39 39 81 81 81 81 81 67 67 67 67
 67 67 67 67 67 67 3 3 3 15 15 15 15 15 15 15 79 79 27 27
 27 27 67 67 67 67 67 67 67 67 67 3 86 86 15 15 15 15 15 15
 15 79 79 27 27 27 27 27 67 67 67 67 67 67 67 67 67 86 86 15
 15 15 15 15 15 15 79 79 2 27 27 51 27 67 67 67 67 67 67 67
 67 86 86 15 15 15 15 15 15 15 15 15 2 2 2 51 51 51 46 46
 46 67 67 67 67 67 86 86 15 15 15 15 15 15 15 15 15 2 2 2
 51 51 51 46 46 46 46 67 67 67 57 57 57 15 15 48 48 48 48 77
 68 68 2 2 2 45 45 45 98 46 46 46 46 57 57 57 29 29 29 48
 48 48 48 48 68 68 68 68 68 68 45 45 45 7 7 7 7 32 29 29
 29 29 29 29 29 48 48 48 48 68 68 68 68 68 68 45 45 45 7 7
 7 7 32 32 29 29 29 29 29 29 48 48 16 16 68 68 68 68 68 68
 68 68 68 7 7 7 7 32 32 29 29 29 29 29 29 16 16 16 16 16
 68 68 68 68 68 68 68 68 61 7 7 7 32 32 32 29 29 29 29 29
 16 16 16 16 16 16 68 68 68 68 68 68 68 61 61 61 61 32 32 32
 29 29 29 29 29 16 16 16 16 16 16 68 68 68 68 68 68 68 61 61
 61 61 61 32 32 29 29 29 29 29 16 16 16 16 16 16 68 68 68 68
 68 69 69 61 61 61 61 61 61 61 36 36 36 36 4 4 16 16 16 16
 16 16 68 68 69 69 69 69 61 61 61 61 61 61 36 36 36 4 4 4
 4 4 16 16 16 16 16 68 68 69 69 69 69 69 61 61 61 61 61 36
 36 4 4 4 4 4 4 16 16 16 16 16 68 69 69 69 69 69 24 24
 28 61 61 61 4 4 4 4 4 4 4 4 4 16 16 16 9 90 90 69
 69 69 24 24 24 24 61 61 4 4 4 4 4 4 4 4 4 4 9 9