# vtk DataFile Version 2.0
Data set from IO Version 6.4.197.9a0dee2
ASCII

DATASET RECTILINEAR_GRID
DIMENSIONS 31 31 31
X_COORDINATES 31 float
-2.566667 2.566667 7.700000 12.833333 17.966667 23.099998 28.233334 33.366669 38.500000 43.633331 48.766666 53.900002 59.033333 64.166664 69.300003 74.433334 79.566666 84.699997 89.833328 94.966667 100.099998 
105.233330 110.366669 115.500000 120.633331 125.766663 130.899994 136.033325 141.166672 146.300003 151.433334 
Y_COORDINATES 31 float
-2.566667 2.566667 7.700000 12.833333 17.966667 23.099998 28.233334 33.366669 38.500000 43.633331 48.766666 53.900002 59.033333 64.166664 69.300003 74.433334 79.566666 84.699997 89.833328 94.966667 100.099998 
105.233330 110.366669 115.500000 120.633331 125.766663 130.899994 136.033325 141.166672 146.300003 151.433334 
Z_COORDINATES 31 float
-2.566667 2.566667 7.700000 12.833333 17.966667 23.099998 28.233334 33.366669 38.500000 43.633331 48.766666 53.900002 59.033333 64.166664 69.300003 74.433334 79.566666 84.699997 89.833328 94.966667 100.099998 
105.233330 110.366669 115.500000 120.633331 125.766663 130.899994 136.033325 141.166672 146.300003 151.433334 
CELL_DATA 27000
SCALARS FeatureIds int 1
LOOKUP_TABLE default
 92 92 130 130 130 130 130 130 130 130 111 111 111 111 111 111 371 371 371 140
 140 140 140 140 140 392 392 392 392 92 332 332 130 130 130 130 130 130 130 130
 111 111 111 111 111 49 49 184 184 140 140 140 140 140 140 392 392 392 392 332
 332 332 130 130 130 130 130 130 130 113 113 113 113 49 49 49 49 184 184 140
 140 140 140 140 140 392 392 392 332 332 332 332 130 130 130 130 130 130 130 113
 113 113 113 49 49 49 49 49 184 323 323 323 323 323 291 291 392 332 332 332
 332 332 236 236 130 130 130 130 130 113 113 113 113 49 49 49 49 49 184 323
 323 323 323 323 291 291 291 332 332 332 332 332 236 236 303 303 303 303 209 377
 113 113 113 49 49 49 49 49 323 323 323 323 323 323 291 291 291 332 332 332
 269 269 236 303 303 303 303 209 209 377 377 143 143 355 355 355 355 355 323 323
 323 323 323 239 239 291 291 269 269 269 269 269 74 303 303 303 303 209 209 377
 377 143 143 355 355 355 355 355 288 288 323 323 239 239 239 291 291 269 269 269
 269 74 74 74 303 303 303 303 209 377 143 143 143 143 355 355 355 355 288 288
 323 323 239 239 239 239 269 269 269 269 168 74 74 74 74 303 303 303 209 143
 143 143 143 143 77 77 77 77 252 252 252 323 239 220 220 220 220 168 168 168
 168 74 74 74 74 187 187 187 187 143 143 143 143 77 77 77 77 77 252 252
 252 101 101 101 220 220 220 168 168 168 168 168 300 300 300 187 187 187 187 187
 143 143 143 77 77 77 77 77 252 252 252 101 101 101 220 220 220 168 168 168
 363 363 300 300 300 187 187 128 128 128 23 23 23 77 77 77 77 77 252 252
 252 101 101 101 220 220 220 168 168 363 363 363 31 31 192 192 128 128 128 128
 23 23 23 119 119 119 119 119 123 123 123 242 242 242 242 220 40 168 363 363
 363 31 31 31 31 192 128 128 128 128 23 23 23 119 119 119 119 119 123 123
 123 123 290 290 290 290 40 40 363 363 363 31 31 31 31 31 128 128 128 345
 345 345 345 119 119 119 119 119 123 123 123 123 290 290 290 290 40 40 40 363
 66 66 31 31 31 31 31 128 345 345 345 345 345 119 119 119 119 119 123 123
 123 362 290 290 290 290 40 40 40 363 66 66 66 31 31 31 403 345 345 345
 345 345 345 345 119 119 119 119 119 123 362 362 362 293 293 293 40 40 40 313
 66 66 66 31 403 403 403 403 345 345 345 345 345 345 345 119 119 119 110 110
 110 362 293 293 293 293 313 313 313 313 313 313 6 6 403 403 403 403 345 345
 345 345 345 259 259 235 235 119 110 110 110 293 293 293 293 293 313 313 313 313
 313 313 6 6 403 403 403 403 232 232 345 259 259 259 259 259 235 110 110 110
 110 293 293 293 293 293 313 313 313 313 313 313 254 254 254 254 12 12 12 232
 232 259 259 259 259 259 259 110 110 110 39 39 39 293 293 313 313 313 313 313
 62 254 254 254 254 254 12 12 12 12 259 259 259 259 259 259 259 259 39 39
 39 39 39 39 39 381 381 381 313 313 89 254 254 254 254 254 12 12 12 12
 129 129 259 259 259 259 372 372 39 39 39 39 39 39 20 20 381 381 381 89
 89 254 254 254 254 254 12 12 12 56 129 129 129 259 259 372 372 372 372 39
 39 39 39 20 20 20 20 381 381 89 89 254 254 254 149 149 12 12 56 56
 129 129 129 129 394 394 372 372 394 394 39 39 39 20 20 20 20 20 89 89
 89 149 149 149 149 149 149 12 56 56 129 129 129 129 394 394 372 372 394 394
 394 65 65 65 20 20 20 20 89 89 92 149 149 149 149 149 149 47 47 47
 111 111 111 111 394 394 394 394 394 394 394 65 65 65 65 20 20 20 92 92
 92 149 149 149 149 149 130 47 47 47 111 111 111 111 394 394 394 394 394 394
 394 65 65 65 65 20 20 92 92 92 92 92 149 149 130 130 130 47 47 47
 111 111 111 111 111 394 394 371 394 394 394 140 140 65 65 65 392 392 92 92
 92 92 130 130 130 130 130 130 130 130 111 111 111 111 150 150 371 371 371 140
 140 140 140 140 140 392 392 392 392 92 332 332 130 130 130 130 130 130 130 130
 111 111 111 111 150 184 184 184 184 140 140 140 140 140 140 392 392 392 392 392
 332 332 130 130 130 130 130 130 130 130 318 318 318 111 49 184 184 184 184 184
 140 140 140 140 140 392 392 392 392 332 332 332 130 130 130 130 130 130 130 113
 318 318 318 49 49 49 184 184 184 184 323 323 323 323 291 291 392 392 332 332
 332 332 236 236 236 130 130 130 130 113 318 318 318 49 49 49 49 184 184 323
 323 323 323 323 291 291 291 332 332 332 269 269 236 236 236 303 303 303 303 377
 318 318 318 49 49 49 49 184 184 323 323 323 323 323 291 291 291 269 269 269
 269 269 236 303 303 303 303 303 303 377 377 143 143 355 355 355 355 213 288 288
 323 323 323 323 291 291 291 269 269 269 269 269 74 303 303 303 303 303 303 377
 143 143 143 143 355 355 355 355 288 288 288 323 323 239 239 291 291 269 269 269
 269 74 74 74 303 303 303 303 303 143 143 143 143 143 26 26 26 355 288 288
 288 288 239 239 239 100 269 269 269 269 269 74 74 74 74 303 303 303 303 143
 143 143 143 143 77 26 77 77 252 252 252 288 101 101 101 100 100 269 269 269
 168 74 74 74 74 74 187 187 187 143 143 143 143 77 77 77 77 77 252 252
 252 101 101 101 101 101 101 168 168 168 168 168 74 74 74 187 187 187 187 187
 143 143 143 77 77 77 77 2 252 252 252 101 101 101 101 101 91 168 168 168
 363 363 192 192 192 192 187 187 187 187 23 23 23 119 119 77 2 2 252 252
 252 101 101 101 101 101 91 91 168 363 363 363 192 192 192 192 192 192 192 187
 23 23 23 119 119 119 119 2 2 252 252 101 101 101 101 91 91 91 40 363
 363 31 31 192 192 192 192 192 192 192 23 23 23 119 119 119 119 119 2 123
 123 393 290 290 290 40 40 40 40 363 363 31 31 31 192 192 192 192 192 345
 345 345 119 119 119 119 119 119 119 123 123 123 290 290 290 40 40 40 40 40
 66 66 66 31 31 31 192 192 345 345 345 345 345 119 119 119 119 119 119 123
 362 362 362 290 290 40 40 40 40 40 66 66 66 31 31 31 403 345 345 345
 345 345 345 345 119 119 119 119 119 123 362 362 362 293 293 40 40 40 40 313
 66 66 66 6 6 403 403 73 345 345 345 345 345 345 119 119 119 119 119 110
 362 362 362 293 293 293 313 313 313 313 313 6 6 6 6 403 403 73 73 345
 345 345 345 259 259 235 235 119 110 110 110 293 293 293 293 313 313 313 313 313
 313 6 6 6 6 6 403 12 232 232 345 259 259 259 259 259 235 365 110 110
 110 293 293 293 293 313 313 313 313 313 313 6 6 6 6 6 12 12 12 12
 369 369 259 259 259 259 259 365 88 110 39 39 39 293 293 313 313 313 313 313
 89 89 6 6 6 6 12 12 12 12 12 259 259 259 259 259 259 245 245 245
 39 39 39 39 20 381 313 313 313 313 89 89 254 254 254 12 12 12 12 12
 129 129 259 259 259 259 372 245 245 245 39 39 39 20 20 20 20 381 89 89
 89 89 254 254 254 12 12 12 12 12 129 129 129 129 398 398 372 372 245 245
 39 39 39 20 20 20 20 89 89 89 89 89 149 149 149 149 12 12 12 12
 129 129 129 129 398 394 372 372 372 245 39 39 39 20 20 20 20 20 89 89
 89 149 149 149 149 149 301 301 301 301 129 129 129 129 394 394 372 372 394 391
 391 391 65 20 20 20 20 20 89 89 92 149 149 149 149 149 301 301 301 301
 111 111 111 111 394 394 394 394 394 391 391 65 65 65 20 20 20 20 92 92
 92 149 149 149 149 149 301 301 47 47 111 111 111 111 150 394 394 371 394 394
 394 140 65 65 65 20 20 92 92 92 92 149 149 149 130 130 130 130 47 47
 111 111 111 111 150 394 371 371 371 394 140 140 140 65 65 392 392 392 92 92
 215 215 130 130 130 130 130 130 130 334 111 111 111 150 150 150 184 184 184 140
 140 140 140 140 140 392 392 392 392 215 215 130 130 130 130 130 130 130 130 334
 318 318 111 150 150 184 184 184 184 184 140 140 140 140 140 392 392 392 392 392
 332 332 130 130 130 130 130 130 130 334 318 318 318 150 150 184 184 184 184 184
 140 140 140 140 140 392 392 392 392 392 332 332 130 130 130 130 130 130 130 318
 318 318 318 318 49 184 184 184 184 184 323 323 323 323 291 392 392 392 392 392
 332 165 165 130 130 130 130 130 130 318 318 318 318 318 49 184 184 184 184 323
 323 323 323 323 291 291 291 392 332 332 269 230 236 236 303 303 303 303 303 318
 318 318 318 318 49 49 213 213 213 323 323 323 323 323 291 291 291 291 269 269
 269 269 236 303 303 303 303 303 303 303 318 318 318 143 213 213 213 213 288 288
 288 323 323 323 291 291 291 24 269 269 269 269 303 303 303 303 303 303 303 303
 143 143 143 143 26 26 26 213 288 288 288 288 323 323 100 100 24 24 269 269
 269 74 74 74 303 303 303 303 303 143 143 143 143 143 26 26 26 26 288 288
 288 288 323 323 100 100 100 24 269 269 269 74 74 74 74 303 303 303 303 143
 143 143 143 143 26 26 26 26 288 288 288 288 101 101 100 100 100 100 269 269
 74 74 74 74 74 74 187 187 187 187 143 143 143 143 26 26 26 2 252 252
 252 252 101 101 100 100 100 100 168 168 168 74 74 74 192 192 187 187 187 187
 143 143 143 77 26 2 2 2 252 252 252 101 101 101 101 100 91 91 91 168
 363 192 192 192 192 192 192 187 187 187 23 23 23 119 119 2 2 2 2 252
 252 101 101 101 101 91 91 91 91 91 363 192 192 192 192 192 192 192 192 187
 23 23 23 119 119 119 2 2 2 2 2 393 101 101 101 91 91 91 91 91
 363 192 192 192 192 192 192 192 192 192 23 23 23 119 119 119 119 2 2 2
 393 393 393 290 91 91 91 91 91 91 66 66 192 192 192 192 192 192 192 345
 345 345 119 119 119 119 119 119 2 2 393 393 393 290 290 40 40 40 40 40
 66 66 66 192 192 192 192 192 192 345 345 345 119 119 119 119 119 119 119 123
 393 393 393 393 28 40 40 40 40 40 66 66 66 66 192 192 192 73 73 10
 10 345 345 119 119 119 119 119 119 119 362 362 362 362 28 28 40 40 40 313
 66 66 66 6 6 6 73 73 73 10 10 10 345 345 119 119 119 119 119 362
 362 362 362 362 28 28 313 313 313 313 313 6 6 6 6 6 73 73 73 73
 10 10 345 259 259 119 365 365 365 365 362 362 362 293 28 313 313 313 313 313
 313 6 6 6 6 6 73 73 73 73 369 369 369 369 259 259 365 365 88 88
 88 88 293 293 293 313 313 313 313 313 313 6 6 6 6 6 6 73 73 369
 369 198 369 369 259 259 365 365 88 88 88 39 39 293 313 313 313 313 313 313
 89 89 6 6 6 6 12 12 12 12 369 369 369 369 259 259 365 245 245 245
 245 39 39 39 20 89 89 313 89 89 89 89 6 6 6 6 12 12 12 12
 129 129 129 129 398 398 398 245 245 245 245 39 39 20 20 20 89 89 89 89
 89 89 89 6 6 6 12 12 12 12 129 129 129 129 398 398 398 372 245 245
 245 39 39 20 20 20 20 89 89 89 89 89 149 149 149 149 301 301 301 301
 129 129 129 129 398 398 398 372 245 245 245 181 20 20 20 20 20 89 89 89
 89 149 149 149 149 149 301 301 301 301 129 129 129 129 398 398 372 372 391 391
 391 391 20 20 20 20 20 20 89 89 215 149 149 149 149 264 301 301 301 301
 111 111 111 150 150 150 394 394 391 391 391 391 65 20 20 20 20 20 215 215
 215 149 149 149 149 149 301 301 301 301 111 111 111 150 150 150 394 371 391 391
 391 391 140 65 20 20 20 215 215 215 215 149 149 149 130 130 130 301 301 301
 111 111 111 150 150 150 371 371 391 391 391 140 140 140 65 392 392 392 215 215
 215 215 130 130 130 130 130 130 334 334 334 150 150 150 150 150 184 184 184 184
 140 140 140 140 320 392 392 392 215 215 215 215 130 130 130 130 130 130 334 334
 334 318 150 150 150 150 184 184 184 184 140 140 140 140 392 392 392 392 392 215
 215 165 165 165 130 130 130 130 334 334 318 318 318 150 150 184 184 184 184 184
 140 140 140 140 392 392 392 392 392 392 165 165 165 165 165 130 130 130 334 334
 318 318 318 150 184 184 184 184 184 184 323 323 323 323 392 392 392 392 392 392
 230 165 165 165 165 130 130 130 334 318 318 318 318 318 184 184 184 184 184 323
 323 323 323 323 291 291 291 392 392 332 230 230 230 165 303 303 303 303 303 318
 318 318 318 318 213 213 213 213 213 323 323 323 323 323 291 291 291 24 24 269
 230 230 230 230 303 303 303 303 303 318 318 318 318 318 213 213 213 213 213 350
 288 323 323 323 291 291 24 24 24 269 230 230 230 230 303 303 303 303 303 303
 143 143 143 143 26 26 213 213 350 288 288 288 323 323 100 100 24 24 24 269
 230 230 230 230 303 303 303 303 303 143 143 143 143 143 26 26 26 213 350 288
 288 288 323 100 100 100 100 24 24 230 230 230 230 74 74 303 303 303 303 143
 143 143 143 26 26 26 26 26 350 350 288 288 100 100 100 100 100 100 24 230
 280 74 74 74 74 192 192 192 187 187 143 143 143 26 26 26 26 2 2 252
 252 252 101 100 100 100 100 100 91 280 280 280 74 192 192 192 192 192 187 187
 143 143 143 26 26 26 2 2 2 252 252 252 101 101 100 100 91 91 91 280
 280 280 192 192 192 192 192 192 192 187 23 23 23 119 119 2 2 2 2 2
 252 252 101 101 101 91 91 91 91 91 280 192 192 192 192 192 192 192 192 192
 23 23 23 119 119 2 2 2 2 2 2 2 393 101 91 91 91 91 91 91
 280 192 192 192 192 192 192 192 192 192 23 23 119 119 119 119 2 2 2 2
 393 393 393 393 91 91 91 91 91 91 66 192 192 192 192 192 192 192 192 192
 345 119 119 119 119 119 119 2 2 2 393 226 393 393 28 28 91 91 91 91
 66 66 66 192 192 192 192 192 73 10 10 345 119 119 119 119 119 119 119 2
 393 393 393 28 28 28 28 28 40 71 66 66 66 6 192 192 73 73 73 10
 10 10 10 119 119 119 119 119 119 365 362 362 362 28 28 28 28 28 71 71
 66 6 6 6 6 6 73 73 73 10 10 10 10 10 119 365 365 365 365 365
 362 362 160 28 28 28 28 313 313 71 313 6 6 6 6 6 73 73 73 10
 10 10 10 10 365 365 365 365 365 365 365 362 160 160 28 28 313 313 313 313
 89 6 6 6 6 6 73 73 73 73 369 369 369 369 327 365 365 365 88 88
 88 88 109 109 109 286 286 313 313 313 89 6 6 6 6 6 73 73 73 73
 369 369 369 369 327 327 365 365 88 88 88 88 109 109 109 286 286 286 89 89
 89 89 6 6 6 6 6 73 73 73 369 369 369 369 369 327 365 365 245 88
 88 88 109 109 20 89 89 89 89 89 89 89 6 6 6 6 12 12 12 12
 369 369 369 369 398 398 398 245 245 245 245 181 181 20 20 20 89 89 89 89
 89 89 89 6 6 6 12 12 12 12 129 129 129 398 398 398 398 398 245 245
 245 181 181 20 20 20 89 89 89 89 89 89 89 149 149 301 301 301 301 301
 129 129 129 398 398 398 398 181 181 181 181 181 181 20 20 20 20 89 89 89
 89 89 149 149 149 264 301 301 301 301 129 129 129 398 398 398 398 391 391 391
 391 391 391 20 20 20 20 89 89 89 215 149 149 149 264 264 301 301 301 301
 301 111 150 150 150 150 150 391 391 391 391 391 391 122 20 20 20 89 215 215
 215 149 149 149 149 264 301 301 301 301 111 111 150 150 150 150 150 391 391 391
 391 391 391 122 122 20 20 215 215 215 215 215 149 149 130 130 301 301 301 301
 111 111 150 150 150 150 150 391 391 391 391 391 140 122 122 392 392 215 215 215
 215 215 165 130 130 130 130 334 334 334 334 150 150 150 150 150 171 171 171 171
 171 207 207 320 320 320 320 392 244 244 215 165 165 165 165 130 130 334 334 334
 334 334 150 150 150 150 171 171 171 171 207 207 207 207 320 320 320 392 244 215
 165 165 165 165 165 165 130 334 334 334 334 318 318 150 150 150 184 184 184 184
 207 207 207 207 320 320 320 392 392 215 165 165 165 165 165 165 130 334 334 334
 318 318 318 150 150 184 184 184 184 184 207 207 207 207 320 320 392 392 392 215
 230 165 165 165 165 165 165 334 334 334 318 318 318 318 213 213 213 213 213 323
 37 37 37 37 146 146 146 392 230 230 230 230 230 165 165 165 303 277 277 277
 318 318 318 318 213 213 213 213 213 350 37 37 37 323 283 291 283 24 230 230
 230 230 230 230 230 303 303 303 277 277 277 318 318 213 213 213 213 213 213 350
 350 37 37 323 283 283 283 24 230 230 230 230 230 230 230 303 303 303 277 277
 86 86 86 86 213 213 213 213 350 350 350 350 323 283 283 283 283 24 24 230
 230 230 230 230 230 303 303 303 303 86 86 86 86 86 26 26 26 213 350 350
 350 350 350 100 100 100 100 24 230 230 230 230 230 230 230 303 303 303 86 86
 86 86 86 26 26 26 26 26 350 350 350 350 350 100 100 100 100 100 230 230
 280 280 230 230 192 192 192 192 192 86 86 86 86 86 26 26 26 2 350 350
 350 151 151 100 100 100 100 100 280 280 280 280 192 192 192 192 192 192 192 86
 86 86 309 102 102 102 2 2 2 2 252 151 151 151 100 100 91 91 91 280
 280 280 192 192 192 192 192 192 192 192 309 309 309 309 102 2 2 2 2 2
 2 151 151 151 63 91 91 91 91 280 280 280 192 192 192 192 192 192 192 192
 309 309 309 309 119 2 2 2 2 2 2 393 151 151 63 63 91 91 91 91
 280 192 192 192 192 192 192 192 192 192 309 309 309 309 119 2 2 2 2 2
 393 393 393 393 63 63 91 91 91 91 71 192 192 192 192 192 192 192 192 192
 309 309 119 119 119 119 2 2 2 2 393 393 393 28 28 28 28 91 91 91
 71 71 192 192 192 115 115 115 115 10 10 103 103 103 103 119 119 119 119 2
 393 393 393 28 28 28 28 28 71 71 71 71 71 6 115 115 115 115 73 10
 10 10 103 103 103 119 365 365 365 365 160 160 160 160 28 28 28 28 71 71
 71 71 6 6 6 6 73 73 73 10 10 10 103 103 103 365 365 365 365 365
 365 160 160 160 28 28 28 28 71 71 71 6 6 6 6 6 73 73 73 73
 10 10 10 103 103 365 365 365 365 365 365 160 160 160 28 28 28 286 286 71
 89 6 6 6 6 6 73 73 73 73 73 369 369 369 327 327 365 365 365 88
 88 88 109 109 109 286 286 286 286 89 89 6 6 6 6 6 73 73 73 73
 369 369 369 369 327 327 327 365 365 88 88 109 109 109 109 286 286 286 286 89
 89 89 6 6 6 6 6 73 73 73 369 369 369 369 327 327 327 365 245 245
 88 88 109 109 109 286 286 286 89 89 89 89 6 6 6 6 6 12 272 272
 272 272 369 137 327 327 327 181 245 245 181 181 109 109 109 20 89 89 89 89
 89 89 89 6 6 6 12 12 272 272 272 272 137 137 137 398 398 181 181 181
 181 181 181 109 20 20 89 89 89 89 89 89 89 383 383 301 301 301 301 272
 272 272 137 137 137 398 398 181 181 181 181 181 181 122 122 20 89 89 89 89
 89 383 383 383 383 301 301 301 301 301 272 129 137 137 137 398 398 181 181 181
 181 181 122 122 122 122 89 89 89 89 215 383 383 383 383 264 301 301 301 301
 301 150 150 150 150 150 150 391 391 391 391 391 122 122 122 122 89 89 215 215
 215 383 383 383 383 301 301 301 301 301 111 150 150 150 150 150 150 171 391 391
 391 122 122 122 122 122 122 215 215 215 215 215 383 383 383 301 301 301 301 334
 334 150 150 150 150 150 150 171 171 171 391 122 122 122 122 122 392 215 244 215
 215 165 165 165 130 130 130 334 334 334 334 334 150 150 150 150 171 171 171 171
 171 207 207 122 320 320 320 320 244 244 165 165 165 165 165 165 329 334 334 334
 334 334 150 150 150 150 171 171 171 171 207 207 207 207 320 320 320 320 244 215
 165 165 165 165 165 165 329 334 334 334 334 334 150 150 150 150 171 171 171 171
 207 207 207 207 320 320 320 320 392 215 165 165 165 165 165 165 329 329 334 334
 334 318 318 150 150 150 184 171 171 171 207 207 207 207 146 146 146 146 370 370
 230 165 165 165 165 165 329 329 329 277 277 318 318 318 213 213 213 213 213 213
 37 37 37 146 146 146 146 146 370 370 230 230 230 165 165 165 329 277 277 277
 277 318 318 213 213 213 213 213 213 350 37 37 37 146 146 146 146 146 230 230
 230 230 230 230 230 303 277 277 277 277 277 42 42 42 213 213 213 213 350 350
 350 37 37 146 146 283 283 146 230 230 230 230 230 230 230 303 303 277 277 277
 42 42 42 42 213 213 213 213 350 350 350 350 37 146 283 283 283 146 230 230
 230 230 230 230 230 303 303 277 277 86 86 86 86 86 26 26 213 350 350 350
 350 350 350 283 283 283 283 24 230 230 230 230 230 230 230 230 303 86 86 86
 86 86 86 86 102 102 102 350 350 350 350 350 350 151 100 100 100 230 230 230
 280 280 230 230 230 192 192 192 86 86 86 86 86 102 102 102 102 102 102 350
 350 151 151 151 63 100 100 280 280 280 280 280 280 192 192 192 192 192 192 86
 86 86 309 102 102 102 102 102 2 2 151 151 151 151 63 63 63 91 280 280
 280 280 131 192 192 192 192 192 192 309 309 309 309 309 102 102 102 2 2 2
 151 151 151 151 63 63 63 91 280 280 280 131 131 131 192 192 192 192 192 192
 309 309 309 309 309 102 2 2 2 2 2 151 151 151 63 63 63 91 91 280
 280 131 131 131 192 192 192 192 192 309 309 309 309 309 309 2 2 2 2 2
 393 393 393 63 63 63 63 91 91 91 71 131 131 192 192 192 115 115 115 115
 309 309 309 309 309 2 2 2 2 2 393 393 393 160 28 28 28 91 91 71
 71 71 256 256 192 115 115 115 115 115 10 309 103 103 103 103 119 2 2 365
 160 160 160 160 28 28 28 28 71 71 71 71 256 256 256 115 115 115 115 10
 10 10 103 103 103 103 365 365 365 365 365 160 160 160 28 28 28 28 71 71
 71 71 6 6 6 115 115 115 73 73 10 10 103 103 103 365 365 365 365 365
 365 160 160 160 28 28 28 28 71 71 71 71 6 6 6 115 73 73 73 73
 10 10 10 103 103 365 365 365 365 365 365 160 160 160 160 28 28 286 71 71
 89 6 6 6 6 6 73 73 73 73 73 369 369 327 327 327 365 365 365 365
 88 109 109 109 109 286 286 286 286 286 89 6 6 6 6 6 73 73 73 73
 73 369 369 327 327 327 327 365 365 365 88 109 109 109 109 286 286 286 286 89
 89 89 6 6 6 6 6 205 73 272 272 272 369 327 327 327 327 365 245 245
 88 109 109 109 109 286 286 286 286 89 89 89 6 6 6 6 6 205 272 272
 272 272 272 137 327 327 181 181 181 181 181 181 109 109 109 286 286 89 89 89
 89 89 89 6 6 6 6 272 272 272 272 272 137 137 137 398 181 181 181 181
 181 181 181 122 122 89 89 89 89 89 89 89 383 383 383 383 301 301 272 272
 272 272 137 137 137 398 181 181 181 181 181 181 122 122 122 122 89 89 89 89
 89 383 383 383 383 383 301 301 301 272 272 272 137 137 137 398 181 181 181 181
 181 181 122 122 122 122 122 89 89 89 383 383 383 383 383 383 301 301 301 301
 272 150 150 150 150 150 171 171 181 181 181 122 122 122 122 122 122 89 27 215
 215 383 383 383 383 383 301 301 301 301 150 150 150 150 150 150 171 171 171 171
 122 122 122 122 122 122 122 215 215 215 215 383 383 383 383 383 301 301 334 334
 334 150 150 150 150 150 171 171 171 171 171 122 122 122 122 122 122 215 215 215
 373 165 165 165 165 165 334 334 334 334 334 334 150 150 150 171 171 171 171 171
 171 207 207 122 320 320 320 320 244 244 373 165 165 165 165 165 329 334 334 334
 334 334 150 150 150 171 171 171 171 171 207 207 207 207 320 320 320 320 244 373
 165 165 165 165 165 165 329 329 334 334 334 334 150 150 150 171 171 171 171 171
 207 207 207 207 320 320 320 320 370 370 370 165 165 165 165 165 329 329 329 334
 334 334 318 150 285 171 171 171 171 171 207 207 207 207 146 146 146 146 370 370
 370 165 165 165 165 165 329 329 329 277 277 318 285 285 374 213 213 213 213 37
 37 37 37 146 146 146 146 146 370 370 370 230 230 165 165 165 329 277 277 277
 277 42 42 285 374 213 213 213 350 350 37 37 37 146 146 146 146 146 370 370
 230 230 230 230 230 22 277 277 277 277 42 42 42 42 213 213 213 213 350 350
 350 37 37 146 146 146 146 146 370 370 230 230 230 230 230 22 277 277 277 277
 42 42 42 42 42 72 72 350 350 350 350 350 37 146 283 283 283 146 230 230
 230 230 230 230 230 22 22 277 277 277 42 42 42 42 102 102 102 350 350 350
 350 350 350 146 283 283 283 146 230 230 230 230 230 230 230 263 263 263 386 86
 86 86 86 102 102 102 102 102 350 350 350 350 151 151 283 100 283 279 230 230
 280 280 230 230 263 263 263 263 386 86 86 86 86 102 102 102 102 102 102 350
 151 151 151 151 63 63 63 279 280 280 280 280 131 131 263 263 263 192 192 309
 309 309 309 102 102 102 102 102 102 102 151 151 151 151 63 63 63 63 280 280
 280 280 131 131 131 263 263 192 192 309 309 309 309 309 102 102 102 102 102 2
 151 151 151 151 63 63 63 63 280 280 280 131 131 131 131 131 192 192 192 309
 309 309 309 309 102 102 102 102 102 2 13 13 151 151 63 63 63 63 280 280
 280 131 131 131 131 131 192 192 115 309 309 309 309 309 309 102 102 102 2 2
 13 13 13 63 63 63 63 63 91 280 71 131 131 131 131 115 115 115 115 115
 309 309 309 309 309 102 2 2 2 2 13 13 13 160 63 63 63 63 63 71
 71 71 256 256 256 115 115 115 115 115 309 103 103 103 103 103 365 365 365 166
 160 160 160 160 28 28 28 28 71 71 71 71 256 256 256 115 115 115 115 115
 10 103 103 103 103 365 365 365 365 365 160 160 160 160 160 28 28 28 71 71
 71 71 256 256 256 115 115 115 115 115 10 10 103 103 103 365 365 365 365 365
 365 160 160 160 160 28 28 28 71 71 71 71 6 6 6 115 115 115 73 73
 73 10 103 103 103 365 365 365 365 365 365 160 160 160 160 28 28 286 71 71
 71 71 6 6 6 205 205 205 73 73 73 75 75 327 327 327 365 365 365 365
 365 160 109 109 109 286 286 286 286 71 89 6 6 6 6 205 205 205 205 73
 75 75 75 327 327 327 327 365 365 365 99 109 109 109 109 286 286 286 286 286
 89 89 6 6 6 205 205 205 205 272 272 75 75 327 327 327 327 365 99 99
 99 99 109 109 109 286 286 286 286 89 89 89 6 6 6 6 205 205 272 272
 272 272 272 272 327 327 327 181 99 99 99 181 109 109 109 286 286 286 89 89
 89 89 89 383 87 87 272 272 272 272 272 272 137 137 137 137 181 181 181 181
 181 181 122 122 122 122 89 89 89 89 89 89 383 383 383 383 87 272 272 272
 272 272 137 137 137 137 181 181 181 181 181 181 122 122 122 122 122 89 89 89
 352 383 383 383 383 383 301 301 272 272 272 272 137 137 137 137 181 181 181 181
 181 122 122 122 122 122 122 352 352 352 352 383 383 383 383 383 301 301 301 292
 292 292 150 150 150 150 171 171 181 181 181 122 122 122 122 122 122 122 27 27
 352 383 383 383 383 383 301 301 292 292 292 292 150 150 150 150 171 171 171 171
 122 122 122 122 122 122 122 122 27 27 352 383 383 383 383 383 301 301 334 334
 334 150 150 150 150 150 171 171 171 171 171 122 122 122 122 122 122 122 27 27
 373 373 165 165 165 67 67 67 334 334 334 292 150 150 44 171 171 171 171 171
 171 207 122 122 122 320 320 320 352 373 373 373 165 165 165 67 67 329 334 334
 334 334 150 150 150 171 171 171 171 171 207 207 207 207 29 320 320 320 373 373
 373 373 165 165 165 67 329 329 329 334 334 285 285 285 285 171 171 171 171 171
 207 207 207 207 29 29 320 320 373 373 370 165 165 165 165 329 329 329 329 329
 334 285 285 285 285 285 171 171 171 171 207 207 207 146 146 146 146 146 370 370
 370 370 165 165 165 329 329 329 329 277 277 285 285 285 374 374 72 72 253 350
 9 9 9 146 146 146 146 146 370 370 370 370 230 165 165 22 329 277 277 277
 277 42 285 285 374 72 72 72 350 350 37 37 37 146 146 146 146 146 370 370
 370 230 230 230 22 22 22 277 277 277 42 42 42 42 374 72 72 72 72 350
 350 37 37 146 146 146 146 146 370 370 230 230 230 230 22 22 22 277 277 277
 42 42 42 42 42 72 72 72 72 350 350 350 350 146 146 146 146 146 370 230
 230 230 230 230 22 22 22 386 386 386 42 42 42 42 102 102 72 72 72 350
 350 350 350 146 283 279 279 279 279 230 230 230 230 230 22 22 22 386 386 386
 386 42 42 102 102 102 102 72 193 193 193 193 151 151 35 279 279 279 279 230
 280 280 230 263 263 263 263 386 386 386 386 386 102 102 102 102 102 102 193 193
 193 151 151 151 35 63 279 279 279 280 280 280 131 131 263 263 263 263 386 386
 386 309 102 102 102 102 102 102 102 193 151 151 151 151 63 63 63 279 279 280
 280 131 131 131 131 263 263 263 376 309 309 309 309 102 102 102 102 102 102 102
 13 151 151 151 63 63 63 63 280 280 280 131 131 131 131 131 192 376 376 309
 309 309 309 309 102 102 102 102 102 102 13 13 13 13 63 63 63 63 63 280
 131 131 131 131 131 131 131 115 115 357 309 309 309 309 309 102 102 102 102 13
 13 13 13 13 63 63 63 63 63 280 71 131 131 131 131 115 115 115 115 357
 357 309 309 309 309 102 102 102 166 166 13 13 13 63 63 63 63 63 63 71
 71 71 256 256 256 115 115 115 115 357 357 357 103 103 103 103 365 365 166 166
 166 166 166 160 160 28 28 28 71 71 71 71 256 256 256 115 115 115 115 357
 357 357 103 103 103 365 365 365 365 166 166 166 160 160 160 28 28 28 71 71
 71 71 256 256 256 115 115 115 115 357 357 357 217 103 217 365 365 365 365 166
 166 166 160 160 160 28 28 28 71 71 71 71 256 256 256 115 115 115 115 357
 357 357 217 103 217 365 365 365 365 365 166 166 160 160 160 28 28 286 71 71
 71 71 6 6 6 205 205 205 205 205 75 75 75 75 327 365 365 365 365 365
 166 166 367 367 367 286 286 286 286 71 89 6 6 6 6 205 205 205 205 205
 75 75 75 75 327 327 327 365 365 333 333 367 367 367 367 286 286 286 286 286
 89 89 6 6 6 205 205 205 205 272 272 75 75 75 327 327 327 99 99 99
 99 99 367 367 367 314 314 314 314 314 89 89 6 87 87 205 205 205 272 272
 272 272 272 272 327 294 294 181 99 99 99 99 122 367 367 314 314 314 314 314
 352 352 352 87 87 87 87 272 272 272 272 272 137 137 137 294 181 181 99 99
 99 122 122 122 122 314 314 314 314 314 352 352 352 383 87 87 87 87 272 272
 272 272 137 137 137 294 181 181 181 181 181 122 122 122 122 122 314 314 352 352
 352 352 383 383 87 87 87 240 240 292 292 292 292 137 137 137 181 181 181 181
 181 122 122 122 122 122 122 352 352 352 352 352 383 383 383 383 87 301 292 292
 292 292 292 150 150 171 171 171 171 181 122 122 122 122 122 122 122 352 27 27
 352 352 383 383 383 383 87 292 292 292 292 292 292 150 150 171 171 171 171 171
 122 122 122 122 122 122 122 352 27 27 352 352 383 383 383 383 67 292 292 292
 292 292 292 150 150 171 171 171 171 171 171 122 122 122 122 122 122 352 352 352
 373 373 373 347 67 67 67 67 67 292 292 292 44 44 44 44 171 171 171 171
 171 207 122 122 122 29 29 352 352 373 373 373 373 165 67 67 67 67 67 334
 334 44 44 44 44 44 171 171 171 171 207 207 207 29 29 29 29 373 373 373
 373 373 165 165 67 67 67 67 329 329 285 285 285 285 285 253 253 253 171 171
 9 9 9 29 29 29 29 373 373 373 373 373 165 165 67 67 329 329 329 329
 285 285 285 285 285 374 253 253 253 9 9 9 9 29 29 146 146 146 373 373
 370 370 165 165 165 67 329 329 329 277 285 285 285 285 374 374 253 253 253 9
 9 9 9 146 146 146 146 146 370 370 370 370 230 22 22 22 22 277 277 277
 277 285 285 374 374 374 72 72 72 350 9 9 9 146 146 146 146 146 370 370
 370 370 230 22 22 22 22 277 277 277 42 42 42 42 374 72 72 72 72 350
 350 9 9 146 146 146 146 146 370 370 325 325 230 22 22 22 22 22 277 277
 42 42 42 42 42 72 72 72 72 193 193 193 193 146 146 146 146 279 279 370
 325 325 325 22 22 22 22 386 386 386 386 42 42 42 102 72 72 72 72 193
 193 193 193 146 146 279 279 279 279 279 325 325 325 22 22 22 22 386 386 386
 386 386 42 102 102 102 102 72 193 193 193 193 193 35 279 279 279 279 279 279
 325 325 325 325 263 263 263 386 386 386 386 386 102 102 102 102 102 102 193 193
 193 151 151 35 35 35 279 279 279 279 302 302 131 131 263 263 263 386 386 386
 386 386 102 102 102 102 102 102 102 193 151 151 151 35 35 35 63 279 279 279
 302 302 131 131 131 263 376 376 376 386 309 309 309 102 102 102 102 102 102 193
 13 13 13 151 63 63 63 63 279 280 302 302 131 131 131 131 376 376 376 376
 309 309 309 309 102 102 102 102 102 13 13 13 13 13 63 63 63 63 63 302
 302 302 131 131 131 211 376 376 376 357 309 309 309 309 102 102 102 102 202 13
 13 13 13 13 63 63 63 63 63 302 302 302 131 131 211 211 211 115 357 357