# vtk DataFile Version 2.0
Data set from IO Version 6.4.197.9a0dee2
ASCII

DATASET RECTILINEAR_GRID
DIMENSIONS 31 31 31
X_COORDINATES 31 float
-2.566667 2.566667 7.700000 12.833333 17.966667 23.099998 28.233334 33.366669 38.500000 43.633331 48.766666 53.900002 59.033333 64.166664 69.300003 74.433334 79.566666 84.699997 89.833328 94.966667 100.099998 
105.233330 110.366669 115.500000 120.633331 125.766663 130.899994 136.033325 141.166672 146.300003 151.433334 
Y_COORDINATES 31 float
-2.566667 2.566667 7.700000 12.833333 17.966667 23.099998 28.233334 33.366669 38.500000 43.633331 48.766666 53.900002 59.033333 64.166664 69.300003 74.433334 79.566666 84.699997 89.833328 94.966667 100.099998 
105.233330 110.366669 115.500000 120.633331 125.766663 130.899994 136.033325 141.166672 146.300003 151.433334 
Z_COORDINATES 31 float
-2.566667 2.566667 7.700000 12.833333 17.966667 23.099998 28.233334 33.366669 38.500000 43.633331 48.766666 53.900002 59.033333 64.166664 69.300003 74.433334 79.566666 84.699997 89.833328 94.966667 100.099998 
105.233330 110.366669 115.500000 120.633331 125.766663 130.899994 136.033325 141.166672 146.300003 151.433334 
CELL_DATA 27000
SCALARS FeatureIds int 1
LOOKUP_TABLE default
 118 118 118 118 390 390 390 390 390 390 390 261 381 381 381 30 30 30 30 355
 355 319 319 319 6 6 6 6 220 220 118 118 118 118 118 390 390 390 390 390
 261 261 381 381 381 30 30 30 30 302 302 319 319 319 319 319 6 220 220 220
 118 118 118 401 401 401 401 401 401 261 261 381 381 381 381 381 30 30 302 302
 302 319 319 319 319 319 52 52 220 220 118 118 118 401 401 401 401 401 401 261
 381 381 381 381 381 381 30 302 302 302 302 302 319 319 319 173 52 52 52 220
 372 372 372 401 401 401 401 401 401 401 261 381 381 381 381 381 302 302 302 302
 302 302 319 319 173 173 173 52 52 220 372 372 372 401 401 401 401 401 401 401
 206 206 381 381 381 381 302 302 302 302 302 302 319 173 173 173 173 52 52 284
 284 372 372 401 401 401 401 401 401 401 206 206 206 381 133 81 81 302 302 302
 302 302 173 173 173 173 173 284 284 284 284 284 36 401 401 401 401 401 401 206
 206 206 206 206 81 81 81 81 302 302 302 286 286 173 173 173 173 284 284 284
 284 284 36 36 36 36 401 401 401 206 206 206 206 81 81 81 81 81 69 69
 69 286 286 286 286 173 284 284 284 284 284 284 36 36 36 36 36 401 142 206
 206 206 206 81 81 81 81 81 69 69 69 69 286 286 286 196 196 284 284 284
 284 36 36 36 36 36 142 142 142 142 323 34 34 81 81 81 81 69 69 69
 69 69 286 286 196 196 196 196 284 284 283 283 227 227 227 36 142 142 142 142
 34 34 34 236 236 236 236 69 69 69 69 69 56 56 196 196 196 196 284 284
 377 227 227 227 227 124 142 142 142 142 34 34 34 34 236 236 140 69 69 69
 69 56 56 56 56 196 196 196 377 377 377 227 227 227 227 124 124 345 345 345
 34 34 34 34 140 140 140 69 69 69 69 56 56 56 56 56 56 377 377 377
 377 227 227 227 227 68 68 345 345 345 345 34 34 34 140 140 153 153 153 69
 56 56 56 56 56 56 56 377 377 377 270 270 227 227 262 68 68 345 345 345
 345 345 34 34 140 153 153 153 153 21 56 56 56 56 56 56 56 270 270 270
 270 270 270 262 262 68 68 345 345 345 345 345 345 311 311 153 153 153 153 21
 21 59 59 59 59 59 91 270 270 270 270 270 270 399 399 399 399 345 345 345
 345 345 311 311 311 311 64 64 21 21 21 59 59 59 59 59 91 270 270 270
 270 270 270 399 399 399 399 399 345 345 345 197 311 311 311 311 64 64 64 21
 21 59 59 59 59 59 55 55 270 270 137 137 137 399 399 399 399 399 399 197
 197 197 197 311 311 311 64 64 64 134 134 59 59 59 59 59 55 55 55 270
 137 228 228 272 272 399 399 399 399 197 197 197 197 311 311 311 64 64 64 134
 134 59 59 59 59 59 55 55 55 270 228 228 228 272 272 272 399 399 399 197
 197 197 197 23 311 311 64 18 18 134 134 59 59 59 59 59 55 55 77 77
 77 228 228 272 272 272 399 399 197 197 197 197 197 191 191 191 356 356 356 162
 162 162 162 59 59 59 376 376 376 77 77 77 228 97 97 97 399 399 197 197
 197 191 191 191 191 191 356 356 356 162 162 162 162 162 59 376 376 376 376 77
 77 77 77 22 22 22 22 22 22 191 191 191 191 191 191 191 356 356 356 356
 162 162 162 162 162 376 376 376 376 77 77 77 22 22 22 22 22 22 22 191
 191 191 191 191 191 191 191 356 356 356 162 162 162 162 162 376 376 376 77 77
 309 309 309 138 22 22 22 22 16 16 16 191 191 191 191 191 191 356 356 394
 394 394 394 394 6 6 6 6 77 77 309 309 309 138 138 22 390 390 16 16
 16 191 191 191 191 191 191 356 355 394 394 394 394 6 6 6 6 6 309 309
 309 309 309 138 138 390 390 390 390 16 16 191 191 191 191 191 191 355 355 355
 394 394 394 6 6 6 6 6 220 220 118 118 309 138 138 390 390 390 390 390
 16 191 191 191 191 191 191 30 355 355 355 355 355 6 6 6 6 6 220 220
 220 118 118 118 390 390 390 390 390 390 261 261 261 381 381 30 30 30 30 355
 355 355 355 319 6 6 161 220 220 220 220 118 118 118 401 390 390 390 390 261
 261 261 261 381 381 30 30 30 30 355 355 355 319 319 319 161 161 220 220 220
 220 220 118 401 401 401 401 401 401 261 261 261 381 381 381 381 30 30 30 302
 302 319 319 319 319 161 161 220 220 220 220 372 401 401 401 401 401 401 401 261
 261 261 381 381 381 381 30 30 302 302 302 302 319 319 319 173 161 220 220 220
 372 372 372 401 401 401 401 401 401 261 261 261 381 381 381 381 381 302 302 302
 302 302 319 319 173 173 173 104 104 220 372 372 372 401 401 401 401 401 401 401
 261 261 381 381 381 381 381 302 302 302 302 302 319 173 173 173 104 104 104 104
 372 372 372 401 401 401 401 401 401 401 206 206 133 133 133 133 57 57 57 302
 302 302 173 173 173 173 104 104 104 284 284 372 36 36 401 401 401 401 401 401
 206 206 133 133 133 81 57 57 57 57 69 286 286 286 173 173 104 284 284 284
 284 36 36 36 36 36 401 401 401 323 323 206 133 133 133 81 81 57 69 69
 69 286 286 286 286 286 284 284 284 284 284 36 36 36 36 36 36 401 401 323
 323 323 133 236 236 236 236 236 69 69 69 69 286 286 286 196 196 284 284 284
 284 283 36 36 36 36 36 142 142 323 323 323 323 236 236 236 236 236 69 69
 69 69 286 286 286 196 196 107 107 284 283 283 283 227 227 36 142 142 142 323
 323 323 236 236 236 236 236 236 69 69 69 116 56 56 196 196 196 107 107 107
 283 283 227 227 227 124 124 142 142 142 34 34 34 236 236 236 236 236 69 69
 69 56 56 56 56 196 196 107 107 107 377 227 227 227 227 124 124 124 345 345
 34 34 34 236 236 236 236 153 69 69 56 56 56 56 56 56 56 377 377 377
 377 227 227 227 262 262 262 345 345 345 345 34 34 236 236 153 153 153 153 153
 56 56 56 56 56 56 56 377 377 377 270 270 240 240 262 262 262 345 345 345
 345 345 34 148 153 153 153 153 153 153 153 56 56 56 56 56 56 270 270 270
 270 270 270 240 262 262 262 345 345 345 345 345 148 148 148 153 153 153 153 153
 21 174 59 59 59 59 270 270 270 270 270 270 270 240 399 399 399 165 165 165
 165 165 148 311 311 311 64 64 64 21 21 59 59 59 59 59 270 270 270 270
 270 270 270 399 399 399 399 399 165 165 165 197 311 311 311 311 64 64 64 64
 388 59 59 59 59 59 55 55 270 270 270 270 137 272 272 272 399 399 399 197
 197 197 197 23 311 64 64 64 64 64 388 59 59 59 59 55 55 55 55 270
 228 228 228 272 272 272 272 106 197 197 197 197 197 23 23 64 64 64 64 64
 388 59 59 59 59 55 55 55 55 270 228 228 228 272 272 272 272 106 106 197
 197 197 197 23 23 23 64 64 64 64 162 162 59 59 59 59 55 55 55 77
 228 228 228 272 272 272 272 106 197 197 197 197 23 23 23 23 356 356 356 162
 162 162 162 162 59 376 376 376 376 376 77 77 228 22 22 22 22 22 197 197
 197 191 191 191 191 191 356 356 356 162 162 162 162 162 162 376 376 376 376 376
 77 77 22 22 22 22 22 22 22 191 191 191 191 191 191 191 356 356 356 162
 162 162 162 162 162 376 376 376 376 376 309 309 309 22 22 22 22 22 22 191
 191 191 191 191 191 191 191 356 356 162 162 162 162 162 382 382 376 376 376 77
 309 309 309 22 22 22 22 22 16 16 191 191 191 191 191 191 191 356 356 355
 394 394 394 394 382 382 382 382 309 309 309 309 309 309 22 22 390 390 390 390
 191 191 191 191 191 191 191 355 355 355 394 394 394 394 382 382 382 382 309 309
 309 309 309 309 138 390 390 390 390 390 191 191 191 191 191 191 191 355 355 355
 355 394 394 394 382 382 382 382 220 309 220 309 309 309 390 390 390 390 390 390
 390 191 191 191 191 191 30 30 355 355 355 355 355 6 6 6 6 6 220 220
 220 220 118 320 390 390 390 390 390 261 261 261 261 261 303 30 30 30 355 355
 355 355 355 161 161 161 161 161 220 220 220 220 118 401 401 401 390 390 261 261
 261 261 261 381 381 30 30 30 30 355 355 355 355 161 161 161 161 161 220 220
 220 220 401 401 401 401 401 401 261 261 261 261 261 381 381 381 30 30 30 355
 355 355 62 62 161 161 161 161 220 220 220 372 401 401 401 401 401 401 261 261
 261 261 381 381 381 381 30 30 302 302 302 62 62 62 62 161 161 104 220 220
 372 372 401 401 401 401 401 401 401 261 261 261 381 381 381 381 381 302 302 302
 302 62 62 62 62 104 104 104 104 104 372 372 401 401 401 401 401 401 401 261
 261 133 133 133 133 133 57 57 57 302 302 62 62 62 173 104 104 104 104 104
 372 372 401 401 401 401 401 401 401 204 133 133 133 133 133 133 57 57 57 57
 57 121 121 121 173 104 104 104 104 104 284 372 36 36 401 401 401 401 401 204
 204 133 133 133 133 133 57 57 57 57 57 286 286 286 286 104 104 104 284 284
 284 36 36 36 36 36 401 401 323 323 323 323 133 133 133 236 57 57 57 57
 69 286 286 286 286 286 104 284 284 284 107 36 36 36 36 36 36 401 323 323
 323 323 133 133 236 236 236 236 69 69 69 286 286 286 286 286 107 107 107 107
 107 283 36 36 36 36 36 323 323 323 323 323 323 236 236 236 236 236 236 69
 116 116 116 286 286 196 107 107 107 107 107 283 227 227 227 36 36 142 323 323
 323 323 236 236 236 236 236 236 236 69 116 116 116 56 196 196 107 107 107 107
 107 227 227 227 227 124 124 124 323 323 323 34 236 236 236 236 236 236 236 69
 116 116 116 56 56 196 107 107 107 107 107 227 227 227 227 124 124 124 345 345
 34 34 236 236 236 236 236 236 69 174 174 116 56 56 56 56 107 107 107 107
 227 227 227 240 240 262 262 262 345 345 345 34 34 236 236 236 153 153 153 174
 174 174 174 56 56 56 56 76 107 107 270 270 240 240 240 262 262 165 165 165
 165 165 148 148 148 153 153 153 153 174 174 174 174 56 56 56 270 270 270 270
 270 270 240 240 240 262 262 165 165 165 165 165 148 148 148 148 153 153 153 174
 174 174 174 174 59 270 270 270 270 270 270 270 270 240 240 399 262 165 165 165
 165 165 148 148 148 64 64 64 64 64 174 388 174 59 59 59 270 270 270 270
 270 270 270 240 399 399 399 165 165 165 165 165 148 23 23 64 64 64 64 64
 388 388 388 59 59 59 55 55 270 270 270 270 272 272 272 272 272 165 165 165
 197 197 23 23 23 23 64 64 64 64 388 388 388 388 59 55 55 55 55 270
 228 228 228 272 272 272 272 106 106 197 197 197 23 23 23 23 64 64 64 64
 388 388 388 59 59 55 55 55 55 270 228 228 228 272 272 272 106 106 106 197
 197 197 23 23 23 23 64 64 64 64 388 388 388 59 59 361 55 55 55 194
 228 228 228 272 272 272 106 106 106 197 197 23 23 23 23 23 356 356 356 162
 162 162 162 162 162 376 376 376 376 376 228 26 228 272 22 136 136 136 106 197
 197 191 191 191 191 191 356 356 356 162 162 162 162 162 162 376 376 376 376 376
 26 26 26 22 22 22 22 136 136 191 191 191 191 191 191 191 356 356 356 162
 162 162 162 162 162 376 376 376 376 376 26 26 26 22 22 22 22 136 136 50
 191 191 191 191 191 191 191 356 356 162 162 162 162 162 382 382 382 376 376 376
 309 26 26 22 22 22 22 22 50 50 191 191 191 191 191 191 191 356 355 355
 394 394 394 382 382 382 382 382 382 28 309 309 309 309 98 98 98 390 50 50
 50 191 191 191 191 191 191 355 355 355 355 394 394 382 382 382 382 382 382 28
 309 309 309 309 98 98 390 390 390 390 50 191 191 191 191 191 355 355 355 355
 355 355 355 382 382 382 382 382 28 28 220 309 309 320 390 390 390 390 390 390
 390 191 191 191 191 191 355 355 355 355 355 355 355 382 382 382 382 382 220 220
 220 220 320 320 320 390 390 390 261 261 261 261 261 303 303 303 30 355 355 355
 355 355 355 161 161 161 161 161 220 220 220 220 320 320 401 401 401 390 261 261
 261 261 261 303 303 303 30 30 355 355 355 355 355 161 161 161 161 161 220 220
 220 220 401 401 401 401 401 401 261 261 261 261 261 303 303 303 30 30 355 355
 355 355 62 62 161 161 161 161 220 220 220 367 367 401 401 401 401 401 261 261
 261 261 261 381 381 381 30 30 193 193 193 62 62 62 62 161 161 104 104 220
 367 367 367 401 401 401 401 401 261 261 261 261 261 381 381 133 133 193 193 193
 193 62 62 62 62 104 104 104 104 104 367 367 367 401 401 401 401 401 401 204
 261 261 133 133 133 133 133 57 57 57 193 121 121 121 121 104 104 104 104 104
 367 367 367 401 401 401 401 401 204 204 204 133 133 133 133 133 57 57 57 57
 121 121 121 121 121 104 104 104 104 104 367 367 36 36 401 401 401 401 204 204
 204 133 133 133 133 133 57 57 57 57 338 121 121 121 121 104 104 104 104 284
 107 36 36 36 36 36 401 204 204 204 323 323 133 133 133 236 57 57 57 57
 338 338 121 121 121 121 104 107 107 107 107 107 36 36 36 36 36 204 204 323
 323 323 133 133 236 236 236 236 236 338 338 338 116 121 286 329 107 107 107 107
 107 107 36 36 36 36 195 323 323 323 323 323 323 236 236 236 236 236 236 116
 116 116 116 116 286 107 107 107 107 107 107 107 227 227 227 195 195 195 323 323
 323 323 236 236 236 236 236 236 236 116 116 116 116 116 116 107 107 107 107 107
 107 107 227 227 227 124 195 195 33 323 323 323 236 236 236 236 236 236 236 116
 116 116 116 116 56 107 107 107 107 107 107 227 227 227 227 124 124 124 33 323
 323 323 236 236 236 236 236 236 174 174 174 174 174 174 174 174 107 107 107 107
 143 240 240 240 240 240 262 262 165 165 165 165 148 236 236 236 236 153 174 174
 174 174 174 174 174 174 76 76 76 76 270 240 240 240 240 240 262 165 165 165
 165 165 148 148 148 148 153 153 174 174 174 174 174 174 174 174 76 76 76 76
 270 270 240 240 240 240 262 165 165 165 165 165 148 148 148 148 153 153 174 174
 174 174 174 174 174 174 318 270 270 270 270 270 240 240 240 240 165 165 165 165
 165 165 148 148 148 148 64 64 64 174 174 388 174 174 174 174 270 270 270 270
 270 270 92 240 240 240 165 165 165 165 165 148 148 148 148 148 64 64 64 388
 388 388 388 388 388 361 55 270 270 270 270 270 341 341 272 272 106 165 165 165
 165 23 23 23 23 23 64 64 64 388 388 388 388 388 361 361 361 361 194 270
 194 194 341 341 272 272 106 106 106 197 197 23 23 23 23 23 64 64 64 388
 388 388 388 388 361 361 361 361 194 194 194 194 341 341 272 272 106 106 106 106
 197 23 23 23 23 23 23 64 64 388 388 388 388 388 332 361 361 361 194 194
 194 194 341 341 341 272 106 106 106 106 23 23 23 23 23 23 356 356 356 162
 162 162 162 332 332 332 332 361 194 194 26 26 26 136 136 136 136 136 106 106
 23 23 23 23 23 23 356 356 356 162 162 162 162 332 332 332 332 376 376 194
 26 26 26 136 136 136 136 136 136 50 191 191 191 191 191 191 156 356 356 162
 162 162 162 332 332 332 332 376 376 376 26 26 26 136 136 136 136 136 50 50
 50 191 191 191 191 191 191 356 356 355 162 203 162 382 382 382 382 382 376 28
 26 26 26 136 136 136 136 136 50 50 50 191 191 191 191 191 191 356 355 355
 355 355 355 382 382 382 382 382 382 28 28 26 26 320 98 98 98 50 50 50
 50 50 191 191 191 191 191 355 355 355 355 355 355 382 382 382 382 382 28 28
 28 28 320 320 98 98 98 50 50 50 50 50 191 191 191 191 355 355 355 355
 355 355 355 382 382 382 382 382 28 28 28 320 320 320 320 390 390 390 390 50
 261 261 191 191 303 303 355 355 355 355 355 355 355 355 382 161 161 382 28 28
 220 320 320 320 320 320 390 390 261 261 261 261 303 303 303 303 303 355 355 355
 355 355 355 209 161 161 161 161 161 28 220 320 320 320 320 250 250 261 261 261
 261 261 303 303 303 303 303 355 355 355 355 355 355 161 161 161 161 161 220 220
 220 367 367 320 250 250 250 261 261 261 261 261 261 303 303 303 303 193 193 193
 193 355 62 62 161 161 161 161 104 220 367 367 367 367 250 250 250 261 261 261
 261 261 261 303 303 303 303 193 193 193 193 62 62 62 62 161 161 104 104 104
 367 367 367 367 401 250 250 401 261 261 261 261 261 381 303 303 193 193 193 193
 193 193 62 62 62 161 104 104 104 367 367 367 367 367 401 401 401 204 204 204
 204 261 133 133 133 133 57 57 193 193 193 121 121 121 121 104 104 104 104 367
 367 367 367 367 401 401 401 204 204 204 204 204 133 133 133 133 57 57 57 57
 121 121 121 121 121 121 104 104 104 367 367 367 367 367 401 401 401 204 204 204
 204 204 133 133 133 133 57 57 57 57 338 121 121 121 121 121 104 104 104 367
 107 243 243 243 243 195 195 204 204 204 204 204 133 133 133 236 57 57 57 338
 338 338 121 121 121 329 329 107 107 107 107 243 243 243 243 195 195 195 204 204
 323 323 133 133 236 236 236 236 236 338 338 338 338 121 329 329 329 107 107 107
 107 243 243 243 243 195 195 195 33 33 323 323 323 236 236 236 236 236 236 338
 338 338 338 338 329 329 107 107 107 107 107 107 243 243 195 195 195 195 33 33
 33 323 236 236 236 236 236 236 236 116 116 116 116 116 329 329 107 107 107 107
 107 143 143 243 195 195 195 195 33 33 33 323 236 236 236 236 236 236 236 174
 116 116 174 174 174 107 107 107 107 107 143 143 143 240 240 195 195 195 33 33
 33 323 236 236 236 236 236 236 174 174 174 174 174 174 174 174 76 76 76 76
 143 143 240 240 240 240 266 165 165 165 165 165 148 236 236 236 236 236 174 174
 174 174 174 174 174 174 76 76 76 76 143 240 240 240 240 240 165 165 165 165
 165 165 148 148 148 148 153 153 174 174 174 174 174 174 174 174 76 76 76 76
 92 92 240 240 240 240 165 165 165 165 165 165 148 148 148 148 19 19 174 174
 174 174 174 174 174 174 318 318 76 76 92 92 92 240 240 240 165 165 165 165
 165 148 148 148 148 148 19 19 19 174 174 174 174 174 174 318 318 318 318 270
 92 92 92 240 341 281 281 281 165 165 165 148 148 148 148 148 19 19 19 388
 388 388 388 388 388 318 318 318 318 270 194 92 341 341 341 341 281 281 281 165
 165 23 23 23 23 23 23 64 64 388 388 388 388 388 361 361 361 361 194 194
 194 194 341 341 341 341 106 106 106 165 23 23 23 23 23 23 23 64 113 113
 388 388 388 388 361 361 361 361 194 194 194 194 341 341 341 341 106 106 106 106
 23 23 23 23 23 23 23 156 113 113 113 388 388 361 361 361 361 361 194 194
 194 194 341 341 341 136 106 106 106 106 23 23 23 23 23 23 156 156 156 113
 113 162 162 332 332 332 332 361 194 194 194 194 341 341 136 136 136 136 136 136
 23 23 23 23 23 23 156 156 156 156 203 203 332 332 332 332 332 332 194 194
 26 26 26 136 136 136 136 136 136 136 50 191 191 191 191 156 156 156 156 203
 203 203 203 332 332 332 332 332 332 194 26 26 26 347 136 136 136 136 50 50
 50 50 191 191 191 191 156 156 156 203 203 203 203 382 382 382 382 382 28 28
 26 26 26 136 136 136 136 136 50 50 50 50 191 191 191 191 156 156 355 355
 203 203 203 382 382 382 382 382 28 28 28 26 320 320 98 98 136 50 50 50
 50 50 50 191 191 191 191 355 355 355 355 355 355 382 382 382 382 382 28 28
 28 28 320 320 320 98 65 50 50 50 50 50 50 191 303 191 355 355 355 355
 355 355 355 209 382 382 382 382 28 28 28 320 320 320 320 320 65 50 50 50
 50 261 303 303 303 303 355 355 355 355 355 355 355 209 209 161 161 382 28 28
 238 320 320 320 320 320 320 261 261 261 261 261 303 303 303 303 342 342 355 355
 355 355 209 209 209 209 161 161 28 28 238 320 320 320 320 250 250 261 261 261
 261 261 303 303 303 303 342 342 355 355 355 355 209 209 161 161 161 161 28 28
 238 367 320 320 250 250 250 261 261 261 261 261 303 303 303 303 342 193 193 193
 193 193 209 209 161 161 161 247 247 238 367 367 367 367 250 250 250 250 261 261
 261 261 261 303 303 303 193 193 193 193 193 193 62 62 62 161 161 104 104 367
 367 367 367 367 250 250 250 250 261 261 261 261 261 303 303 303 193 193 193 193
 193 193 62 62 62 104 104 104 104 367 367 367 367 367 250 250 250 204 204 204
 204 261 133 133 133 133 193 193 193 193 193 121 121 121 121 121 104 104 104 367
 367 367 367 367 401 401 401 204 204 204 204 204 133 133 133 133 57 57 57 200
 121 121 121 121 121 121 104 104 104 367 367 367 367 243 243 195 204 204 204 204
 204 204 133 133 133 45 45 57 57 338 338 338 121 121 121 121 121 104 104 367
 243 243 243 243 243 195 195 204 204 204 204 204 133 133 133 236 57 57 57 338
 338 338 338 121 121 329 329 329 107 107 107 243 243 243 195 195 195 195 204 204
 204 204 133 306 236 236 236 236 338 338 338 338 338 121 329 329 329 107 107 107
 107 243 243 243 195 195 195 195 33 33 33 33 323 236 236 236 236 236 236 338
 338 338 338 338 329 329 329 107 107 107 107 243 243 243 195 195 195 195 33 33
 33 33 236 236 236 236 236 236 236 338 338 338 338 338 329 123 123 107 107 107
 143 143 143 243 195 195 195 195 33 33 33 33 236 236 236 236 236 236 236 174
 174 174 174 174 174 123 123 107 107 107 143 143 143 240 266 266 195 195 33 33
 33 33 245 245 245 236 236 236 174 174 174 174 174 174 174 174 76 76 76 76
 143 143 143 240 240 266 266 195 165 33 165 148 245 245 245 245 236 236 174 174
 174 174 174 174 174 192 76 76 76 76 76 143 240 240 240 266 266 165 165 165
 165 148 148 148 148 148 148 174 174 174 174 174 174 174 174 192 192 76 76 76
 92 92 92 240 240 240 165 165 165 165 165 148 148 148 148 148 19 19 19 174
 174 174 174 174 174 192 318 318 76 76 92 92 92 240 240 165 165 165 165 165
 165 148 148 148 148 148 19 19 19 174 174 174 174 174 174 358 318 318 318 270
 92 92 92 92 341 281 281 281 165 165 165 148 148 148 148 148 19 19 19 174
 174 174 174 174 358 358 318 318 318 318 194 194 341 341 341 341 281 281 281 165
 165 148 148 148 148 148 19 19 19 388 388 388 388 388 358 361 361 361 194 194
 194 194 341 341 341 341 281 281 281 165 165 23 23 23 23 23 23 113 113 113
 113 388 388 361 361 361 361 361 194 194 194 194 341 341 341 341 106 106 106 106
 23 23 23 23 23 23 23 156 113 113 113 113 213 361 361 361 361 361 194 194
 194 194 341 341 341 341 106 106 106 106 23 23 23 23 23 23 156 156 156 113
 113 113 332 332 332 332 332 361 194 194 194 194 341 341 136 136 136 136 136 136
 23 23 23 23 23 156 156 156 156 156 203 203 332 332 332 332 332 332 194 194
 26 26 347 347 136 136 136 136 136 50 50 23 23 23 23 156 156 156 156 203
 203 203 203 332 332 332 332 332 194 194 26 26 347 347 136 136 136 136 50 50
 50 50 50 191 191 156 156 156 156 203 203 203 203 203 332 332 332 332 386 28
 26 26 347 347 136 136 136 50 50 50 50 50 50 191 191 191 156 156 355 203
 203 203 203 203 382 382 382 382 28 28 28 28 320 65 65 65 65 50 50 50
 50 50 50 130 130 342 342 342 355 355 355 355 209 209 382 382 382 382 28 28
 28 28 320 320 320 65 65 50 50 50 50 50 130 130 130 342 342 342 355 355
 355 355 209 209 209 209 382 28 28 28 28 320 320 320 320 65 65 50 50 50
 50 50 303 303 303 342 342 342 342 355 355 355 209 209 209 209 209 28 28 28
 238 238 320 320 320 65 65 65 261 261 261 261 303 303 303 342 342 342 342 342
 355 209 209 209 209 209 209 209 238 238 238 238 320 320 320 250 65 261 261 261
 261 261 303 303 303 303 342 342 342 342 355 209 209 209 209 209 209 247 238 238
 238 238 238 320 250 250 250 250 261 261 261 261 303 303 303 303 342 342 193 193
 193 193 209 209 209 209 247 247 247 238 367 367 367 367 250 250 250 250 261 261
 261 261 303 303 303 303 193 193 193 193 193 193 209 62 209 247 247 247 247 238
 367 367 367 367 250 250 250 250 261 261 127 127 127 303 303 303 200 200 200 193
 193 193 121 121 121 247 247 247 247 367 367 367 367 367 250 250 250 204 204 204
 127 127 127 45 45 45 200 200 200 200 200 200 121 121 121 121 104 104 104 367
 367 367 367 367 367 401 204 204 204 204 204 127 127 45 45 45 45 200 200 200
 200 121 121 121 121 121 121 104 104 367 367 367 243 243 243 195 204 204 204 204
 204 204 45 45 45 45 45 45 200 200 338 307 121 121 121 121 121 104 312 367
 243 243 243 243 195 195 195 204 204 204 204 204 306 306 45 45 45 39 39 39
 338 338 307 121 121 329 329 123 107 107 243 243 243 243 195 195 195 195 204 204
 204 204 306 306 306 236 236 39 39 39 338 338 338 307 329 329 329 123 107 107
 243 243 243 243 195 195 195 195 33 33 33 33 306 306 306 236 236 236 39 39
 338 338 338 338 329 329 123 123 123 107 151 151 243 243 195 195 195 195 33 33
 33 33 306 236 236 236 236 236 39 39 338 338 338 338 123 123 123 123 123 107
 143 143 243 243 195 195 195 195 33 33 33 33 245 245 245 236 236 236 236 174
 174 174 174 174 123 123 123 123 123 107 143 143 143 243 266 266 266 195 33 33
 33 245 245 245 245 245 236 236 174 174 174 174 174 174 174 192 192 192 192 76
 143 143 143 240 266 266 266 112 112 241 241 241 241 245 245 245 245 174 174 174
 174 174 174 174 174 192 192 192 76 76 76 143 143 240 266 266 266 112 112 165
 241 241 241 148 148 148 148 174 174 174 174 174 174 174 174 192 192 192 192 76
 92 92 92 92 266 266 387 387 387 165 241 241 148 148 148 148 19 19 174 174
 174 174 174 174 174 192 192 192 192 192 92 92 92 92 387 387 387 387 387 165
 165 148 148 148 148 148 19 19 19 174 174 174 174 174 174 358 318 318 318 192
 92 92 92 92 341 387 387 387 387 165 165 148 148 148 148 148 19 19 19 174
 174 174 174 174 358 358 358 318 318 318 194 341 341 341 341 341 281 281 281 165
 165 148 148 148 148 148 19 19 19 174 174 388 388 358 358 358 358 358 194 194
 194 341 341 341 341 341 281 281 281 281 150 150 150 150 23 23 23 113 113 113
 113 113 213 213 358 358 358 361 194 194 194 194 341 341 341 341 281 106 281 150
 150 150 150 150 150 150 156 156 113 113 113 113 213 213 213 213 361 361 194 194
 194 194 341 341 341 341 341 139 139 150 150 150 150 150 150 156 156 156 156 113
 113 113 213 213 213 332 332 332 194 194 194 194 341 341 341 136 136 136 136 150
 150 150 150 150 150 156 156 156 156 156 203 203 213 213 332 332 332 332 194 194
 194 194 347 347 136 136 136 136 136 46 46 46 46 150 156 156 156 156 156 156
 203 203 203 332 332 332 332 332 386 386 26 26 347 347 65 65 136 65 50 50
 46 46 46 46 156 156 156 156 156 203 203 203 203 332 332 332 332 386 386 386
 26 65 65 65 65 65 65 65 50 50 50 46 46 46 130 342 342 342 342 203
 203 203 203 209 209 209 386 386 386 386 28 65 65 65 65 65 65 65 50 50
 50 50 130 130 130 342 342 342 342 342 355 209 209 209 209 209 209 386 28 28
 28 28 320 320 65 65 65 65 50 50 50 50 130 130 130 342 342 342 342 342
 355 209 209 209 209 209 209 28 28 28 28 320 320 320 320 65 65 65 50 50
 50 130 130 130 130 342 342 342 342 342 355 209 209 209 209 209 209 209 28 28
 238 238 320 320 65 65 65 65 61 61 261 130 130 130 130 342 342 342 342 342
 209 209 209 209 209 209 209 231 231 238 238 238 308 320 308 65 65 61 61 61
 261 261 303 303 303 342 342 342 342 342 209 209 209 209 209 209 209 231 231 238
 238 238 308 308 308 308 250 61 61 61 61 261 303 303 303 303 342 342 193 193
 187 187 209 209 209 209 247 247 247 238 367 367 308 308 308 308 250 61 61 61
 61 61 321 321 321 321 200 200 200 193 187 187 187 187 276 276 247 247 247 238
 367 367 367 308 308 308 250 61 61 61 127 127 127 321 321 321 200 200 200 200
 200 187 187 187 276 276 247 247 247 367 367 367 367 367 308 308 250 204 204 204
 127 127 127 45 45 45 200 200 200 200 200 187 187 121 276 276 276 276 247 367
 312 367 367 367 367 210 210 204 204 204 127 127 127 45 45 45 45 200 200 200
 200 307 307 121 276 276 276 276 312 312 312 312 243 243 195 210 210 210 204 204
 204 204 45 45 45 45 45 289 289 289 307 307 307 307 121 121 373 312 312 312
 312 243 243 243 195 195 210 210 210 204 204 204 306 306 45 45 45 344 39 39
 307 307 307 307 307 373 373 373 312 312 243 243 243 243 195 195 195 210 210 210
 204 306 306 306 306 306 344 344 39 39 39 307 307 307 373 373 373 123 123 41
 151 151 243 243 195 195 195 195 210 210 33 306 306 306 306 306 236 344 39 39
 39 307 307 307 373 373 123 123 123 123 151 151 151 243 195 195 195 195 210 33
 33 242 306 306 306 236 236 236 39 375 375 375 375 307 373 123 123 123 123 123
 151 151 151 243 195 195 195 195 210 33 33 242 242 306 245 236 236 236 375 375
 375 375 375 375 123 123 123 123 123 123 143 143 143 266 266 266 266 112 112 112
 241 241 245 245 245 245 245 236 375 375 375 375 375 375 375 192 192 192 192 192
 143 143 143 266 266 266 266 112 112 112 241 241 241 245 245 245 245 174 174 174
 174 174 174 174 174 192 192 192 192 192 76 143 143 266 266 266 112 112 112 112
 241 241 241 148 245 245 245 215 174 174 174 174 174 174 174 192 192 192 192 192
 92 92 92 92 387 387 387 387 387 387 241 241 148 148 148 148 19 215 215 215
 174 174 174 174 174 192 192 192 192 192 92 92 92 92 387 387 387 387 387 387
 165 148 148 148 148 148 19 215 215 215 174 174 174 174 358 358 192 192 192 192
 92 92 92 92 387 387 387 387 387 387 148 148 148 148 148 148 19 215 215 215
 215 174 174 358 358 358 358 358 318 353 194 341 341 341 341 341 139 139 139 139
 150 150 150 150 148 148 19 215 215 215 215 215 174 358 358 358 358 358 194 194
 194 341 341 341 341 341 139 139 139 139 150 150 150 150 150 150 346 346 346 113
 113 113 213 213 358 358 358 358 194 194 194 194 341 341 341 341 139 139 139 139
 150 150 150 150 150 150 346 346 346 346 113 213 213 213 213 213 213 361 194 194
 194 194 341 341 341 341 139 139 139 139 150 150 150 150 150 150 156 156 156 113
 113 213 213 213 213 213 213 386 194 194 194 218 218 218 341 136 139 139 139 139
 150 150 150 150 150 150 156 156 156 156 203 213 213 213 213 213 332 386 386 386
 386 218 218 218 65 65 65 65 139 46 46 46 46 150 150 156 156 156 156 156
 203 203 213 213 332 332 386 386 386 386 386 65 65 65 65 65 65 65 50 50
 46 46 46 46 46 374 374 374 374 374 203 203 203 332 332 386 386 386 386 386
 386 65 65 65 65 65 65 65 50 50 46 46 46 46 130 374 374 374 374 374
 203 203 209 209 209 386 386 386 386 386 28 65 65 65 65 65 65 65 50 50
 50 50 130 130 130 342 342 342 342 342 209 209 209 209 209 209 386 386 386 386
 28 65 65 65 65 65 65 65 50 50 50 130 130 130 130 342 342 342 342 342
 209 209 209 209 209 209 209 386 386 28 28 320 320 320 65 65 65 65 50 50
 50 130 130 130 130 342 342 342 342 342 209 209 209 209 209 209 209 209 28 28
 231 231 231 320 65 135 65 65 61 61 61 130 130 130 130 342 342 342 342 342
 209 209 209 209 209 209 209 231 231 231 231 231 308 308 308 135 135 61 61 61
 61 61 130 130 130 342 342 342 342 342 187 187 209 209 209 209 209 231 231 231
 231 231 308 308 308 135 135 61 61 61 61 61 321 321 321 321 342 342 342 187
 187 187 187 187 209 209 247 247 231 231 231 308 308 308 308 308 308 61 61 61
 61 61 321 321 321 321 321 200 200 187 187 187 187 187 276 276 247 247 247 231
 367 308 308 308 308 308 308 61 61 61 61 127 321 321 321 321 200 200 200 200
 187 187 187 187 276 276 276 247 247 231 312 312 308 308 308 308 61 61 61 61
 127 127 127 321 321 45 200 200 200 200 200 187 187 276 276 276 276 276 312 312
 312 312 312 392 392 210 210 210 210 61 127 127 127 45 45 45 45 200 200 200
 200 307 307 307 276 276 276 276 312 312 312 312 392 392 392 210 210 210 210 210
 210 204 45 45 45 45 45 289 289 289 289 307 307 307 373 373 373 373 312 312
 312 312 232 232 232 210 210 210 210 210 210 210 306 306 45 45 344 344 289 289