# vtk DataFile Version 2.0
Data set from IO Version 6.4.197.9a0dee2
ASCII

DATASET RECTILINEAR_GRID
DIMENSIONS 31 31 31
X_COORDINATES 31 float
-2.566667 2.566667 7.700000 12.833333 17.966667 23.099998 28.233334 33.366669 38.500000 43.633331 48.766666 53.900002 59.033333 64.166664 69.300003 74.433334 79.566666 84.699997 89.833328 94.966667 100.099998 
105.233330 110.366669 115.500000 120.633331 125.766663 130.899994 136.033325 141.166672 146.300003 151.433334 
Y_COORDINATES 31 float
-2.566667 2.566667 7.700000 12.833333 17.966667 23.099998 28.233334 33.366669 38.500000 43.633331 48.766666 53.900002 59.033333 64.166664 69.300003 74.433334 79.566666 84.699997 89.833328 94.966667 100.099998 
105.233330 110.366669 115.500000 120.633331 125.766663 130.899994 136.033325 141.166672 146.300003 151.433334 
Z_COORDINATES 31 float
-2.566667 2.566667 7.700000 12.833333 17.966667 23.099998 28.233334 33.366669 38.500000 43.633331 48.766666 53.900002 59.033333 64.166664 69.300003 74.433334 79.566666 84.699997 89.833328 94.966667 100.099998 
105.233330 110.366669 115.500000 120.633331 125.766663 130.899994 136.033325 141.166672 146.300003 151.433334 
CELL_DATA 27000
SCALARS FeatureIds int 1
LOOKUP_TABLE default
 132 306 306 306 306 265 265 75 349 349 349 121 64 64 64 170 170 170 170 328
 54 54 54 54 54 54 54 132 132 132 175 175 306 306 265 265 265 75 349 349
 349 64 64 64 64 64 170 170 211 211 211 54 54 54 54 54 54 132 132 132
 175 175 175 175 265 265 265 265 349 349 349 64 64 64 64 64 64 92 211 211
 211 211 54 54 54 54 54 132 132 175 175 175 175 175 265 265 265 265 349 341
 349 21 21 21 21 21 92 92 211 211 211 211 230 230 230 230 320 320 320 175
 175 175 175 175 37 37 37 37 341 341 341 21 21 21 21 21 92 92 211 211
 211 230 230 230 230 230 320 320 320 320 175 175 175 37 37 37 37 341 341 341
 341 21 21 21 21 21 92 92 92 211 211 230 230 230 230 230 320 320 320 320
 320 175 42 42 114 37 114 114 341 341 341 21 21 21 21 21 21 92 92 353
 353 353 230 230 230 230 230 320 320 320 210 42 42 42 42 114 114 114 341 341
 341 21 21 21 21 21 39 39 353 353 353 353 353 353 353 230 226 226 320 320
 257 42 42 42 114 114 114 114 26 166 166 166 166 166 39 39 39 39 353 353
 353 353 353 353 353 353 226 226 226 226 257 257 257 42 114 114 114 26 26 26
 166 166 166 166 39 39 39 39 353 353 353 353 353 353 353 353 226 226 226 226
 257 257 257 257 347 347 347 26 26 26 26 166 166 166 39 39 39 39 353 353
 353 353 353 353 353 353 111 226 244 244 244 257 257 347 347 347 347 26 26 26
 26 26 166 72 72 72 72 72 353 353 353 353 353 353 353 111 111 111 244 244
 244 257 6 347 347 347 347 26 26 26 26 300 300 72 72 72 72 72 72 353
 353 353 353 353 206 206 111 111 244 244 244 46 6 347 347 347 347 26 26 26
 300 300 300 72 72 72 72 72 72 72 353 337 337 337 337 206 206 206 46 46
 252 46 46 46 347 220 220 220 220 300 300 300 300 300 72 72 72 72 72 233
 233 337 337 337 337 206 206 206 252 252 252 46 46 46 220 220 220 220 220 357
 357 357 357 300 169 169 169 72 233 233 233 337 337 337 337 206 206 206 252 252
 252 46 46 46 220 220 220 220 220 357 357 357 357 357 169 169 169 72 233 233
 233 233 337 337 337 206 206 8 8 252 46 141 141 141 112 112 220 24 24 24
 24 357 357 357 216 216 216 233 233 233 233 233 233 337 337 8 8 8 8 8
 141 141 141 141 112 112 112 24 24 24 24 163 163 13 216 216 216 216 233 233
 233 233 233 58 58 58 8 8 8 8 141 141 141 141 112 112 112 24 24 24
 163 163 163 13 216 216 216 216 233 233 233 233 233 58 58 58 58 8 8 141
 141 141 141 141 112 112 112 24 24 24 163 163 163 13 216 216 216 216 290 233
 233 233 350 350 58 58 58 58 8 141 47 47 141 273 112 112 112 24 24 259
 259 259 259 259 216 216 216 290 290 290 290 290 329 329 190 190 190 190 47 47
 47 47 273 273 273 273 273 184 184 259 259 259 259 259 137 137 137 290 290 290
 290 329 329 329 190 190 190 190 47 47 47 47 273 273 273 273 184 184 184 259
 259 259 259 259 137 137 137 290 290 290 290 329 329 329 190 190 190 190 47 47
 47 47 273 273 273 273 184 184 184 184 259 259 259 259 137 137 137 290 290 290
 290 329 329 329 190 190 190 373 47 47 47 47 273 273 369 184 184 184 184 184
 259 259 259 259 137 137 137 290 290 290 290 329 329 329 329 190 373 373 373 47
 133 133 273 369 369 184 184 184 184 184 184 121 121 121 170 170 170 201 201 201
 201 201 329 329 329 190 99 99 99 99 133 133 133 369 369 184 184 184 184 184
 121 121 121 121 170 170 170 201 201 201 201 201 54 54 54 54 99 99 99 99
 133 306 306 306 306 184 184 184 184 184 121 121 121 121 170 170 170 170 201 201
 201 201 54 54 54 54 99 99 99 99 306 306 306 306 306 306 75 75 75 184
 121 121 121 121 170 170 170 170 201 201 201 54 54 54 54 54 99 99 99 99
 132 132 306 306 265 265 265 75 76 76 76 64 64 64 64 170 170 170 328 328
 328 54 54 54 54 54 54 132 132 132 132 175 175 175 265 265 265 76 76 76
 76 64 64 64 64 64 170 170 92 328 328 328 54 54 54 54 132 132 132 132
 175 175 175 175 265 265 265 76 76 76 76 64 64 64 64 64 92 92 92 92
 92 230 230 230 230 230 230 132 132 132 175 175 175 175 265 265 265 341 341 341
 341 64 64 64 64 64 92 92 92 92 92 230 230 230 230 230 320 320 320 320
 175 175 175 175 37 37 37 341 341 341 341 21 21 21 21 21 92 92 92 92
 92 230 230 230 230 230 320 320 320 320 320 175 175 175 37 37 37 341 341 341
 341 341 21 21 21 21 92 92 92 92 92 230 230 230 230 230 320 320 320 320
 320 175 42 42 42 37 37 341 341 341 341 341 21 21 21 21 92 92 92 92
 92 230 230 230 230 230 320 320 320 320 210 210 42 42 42 114 114 191 341 341
 341 166 21 21 21 39 92 92 92 353 353 353 353 353 230 230 320 320 320 210
 210 210 42 42 42 114 191 191 191 166 166 166 166 166 39 39 39 39 353 353
 353 353 353 353 353 226 226 226 226 210 210 210 6 42 114 191 191 191 191 166
 166 166 166 166 39 39 39 39 353 353 353 353 353 353 353 254 226 226 226 210
 6 6 6 6 347 347 347 191 26 26 166 166 166 166 39 39 39 39 353 353
 353 353 353 353 254 254 226 226 226 210 6 6 6 6 347 347 347 26 26 26
 26 166 166 72 72 72 72 72 72 353 353 353 353 353 254 254 254 254 244 6
 6 6 6 6 347 347 347 26 26 26 26 300 300 72 72 72 72 72 231 231
 353 353 337 337 254 254 254 254 244 6 46 6 6 6 347 347 347 220 26 26
 357 357 357 72 72 72 72 72 231 231 231 337 337 337 337 206 206 206 46 46
 46 46 46 46 299 220 220 220 220 357 357 357 357 357 72 72 72 72 231 231
 233 337 337 337 337 206 206 206 46 46 46 46 46 46 299 220 220 220 220 357
 357 357 357 357 72 72 72 72 233 233 233 337 337 337 337 206 206 206 46 46
 46 46 46 46 299 220 220 220 220 357 357 357 357 357 169 169 169 72 233 233
 233 233 337 337 337 206 206 8 8 46 46 46 141 141 112 112 220 220 24 24
 357 357 357 357 216 216 216 216 233 233 233 233 233 337 337 8 8 8 8 8
 141 141 141 141 112 112 112 24 24 24 163 163 163 216 216 216 216 216 233 233
 233 233 233 337 58 58 8 8 8 8 141 141 141 141 112 112 112 24 24 24
 163 163 163 216 216 216 216 216 233 233 233 233 233 58 58 58 58 8 8 141
 141 141 141 141 112 112 112 112 24 24 163 163 163 216 216 216 216 216 290 290
 233 350 350 350 58 58 58 58 8 141 141 141 141 141 112 112 112 112 24 259
 259 259 259 216 216 216 216 290 290 290 290 350 350 350 350 350 58 58 47 47
 47 311 311 273 369 369 369 184 259 259 259 259 259 259 342 342 342 290 290 290
 290 290 329 329 350 190 190 190 47 47 47 311 311 273 369 369 369 184 184 259
 259 259 259 259 342 342 342 290 290 290 290 290 329 329 329 190 190 190 47 47
 311 311 311 369 369 369 369 184 184 259 259 259 259 259 342 342 342 290 290 290
 290 329 329 329 329 60 60 60 47 47 311 133 311 369 369 369 369 184 184 184
 259 259 259 259 342 342 342 290 290 290 290 329 329 329 60 60 60 60 373 47
 133 133 133 369 369 369 369 184 184 184 184 121 121 170 170 170 170 201 201 201
 201 201 106 106 60 60 99 99 99 99 133 133 133 369 369 369 184 184 184 184
 121 121 121 170 170 170 170 170 201 201 201 201 106 106 106 99 99 99 99 99
 133 133 133 269 369 369 75 75 75 184 121 121 121 121 170 170 170 170 201 201
 201 201 54 54 54 54 99 99 99 99 132 133 269 269 269 75 75 75 75 76
 76 121 121 64 170 170 170 170 201 328 328 328 54 54 54 54 99 99 99 132
 132 132 269 269 269 265 265 76 76 76 76 76 64 64 64 170 170 170 328 328
 328 328 328 106 54 54 132 132 132 132 132 175 175 269 265 265 265 76 76 76
 76 76 64 64 64 64 170 92 92 328 328 328 328 106 54 132 132 132 132 132
 175 175 175 175 265 265 265 76 76 76 76 76 64 64 64 64 92 92 92 92
 92 328 230 230 230 230 132 132 132 132 175 175 175 175 265 265 265 76 76 76
 76 76 64 64 64 92 92 92 92 92 92 230 230 230 230 230 320 320 320 320
 320 175 175 175 37 37 37 37 341 341 341 341 21 21 21 92 92 92 92 92
 92 230 230 230 230 230 320 320 320 320 320 175 175 37 37 37 37 341 341 341
 341 341 21 21 21 92 92 92 92 92 92 230 230 230 230 230 320 320 320 320
 320 175 42 42 42 37 37 341 341 341 341 341 21 21 21 92 92 92 92 92
 92 230 230 230 230 236 236 320 320 320 210 210 42 42 42 37 191 191 191 341
 341 166 166 21 39 39 92 92 92 92 92 353 353 236 236 236 236 320 320 210
 210 210 42 42 42 191 191 191 191 166 166 166 166 166 39 39 39 92 92 353
 353 353 353 353 236 236 226 226 210 210 210 210 6 6 42 191 191 191 191 166
 166 166 166 166 39 39 39 39 172 353 353 353 353 353 254 254 226 226 210 210
 6 6 6 6 347 347 191 191 191 166 166 166 166 166 39 39 39 39 353 353
 353 353 353 254 254 254 254 226 226 210 6 6 6 6 347 347 347 191 191 235
 235 235 235 235 72 72 72 72 231 231 231 353 353 254 254 254 254 254 226 6
 6 6 6 6 347 347 347 191 26 26 235 235 235 235 72 72 72 72 231 231
 231 231 346 346 254 254 254 254 46 6 46 6 6 6 347 347 347 220 220 357
 357 357 357 72 72 72 72 72 231 231 231 337 346 346 337 206 206 46 46 46
 46 46 46 46 299 299 299 220 220 357 357 357 357 357 72 72 72 72 231 231
 231 337 337 337 337 206 206 46 46 46 46 46 46 46 299 299 299 220 220 357
 357 357 357 357 72 72 72 72 233 233 233 93 337 337 337 206 206 46 46 46
 46 46 46 46 299 299 299 220 220 357 357 357 357 357 357 72 72 233 233 233
 233 233 337 337 337 206 8 8 46 46 46 46 46 46 112 299 299 220 220 357
 357 357 357 357 216 216 216 233 233 233 233 233 233 337 337 8 8 8 8 46
 141 141 141 141 112 112 112 112 278 278 163 163 163 216 216 216 216 216 233 233
 233 233 233 350 58 58 8 8 8 8 141 141 141 141 112 112 112 278 278 278
 163 163 163 216 216 216 216 216 233 233 233 233 350 350 58 58 58 8 8 8
 141 141 141 141 112 112 112 112 278 278 163 163 163 216 216 216 216 216 290 290
 350 350 350 350 350 58 58 58 8 141 141 311 311 311 112 112 112 112 278 278
 259 259 259 162 162 162 162 290 290 290 290 350 350 350 350 350 350 350 47 141
 311 311 311 311 369 369 369 369 259 259 259 259 259 162 162 162 162 290 290 290
 290 350 350 350 350 350 350 350 47 311 311 311 311 311 369 369 369 369 369 259
 259 259 259 162 162 162 162 290 290 290 290 290 350 350 350 60 60 60 47 311
 311 311 311 369 369 369 369 369 238 238 259 259 259 162 162 162 162 290 290 290
 290 290 329 60 60 60 60 60 60 311 311 133 311 369 369 369 369 369 238 238
 238 259 259 162 162 162 162 290 290 290 290 290 106 60 60 60 60 60 60 311
 133 133 133 369 369 369 369 369 238 238 238 238 238 170 170 170 170 170 201 328
 201 106 106 106 60 60 60 99 99 99 133 133 133 369 369 369 369 369 184 238
 238 238 121 170 170 170 170 170 328 328 328 106 106 106 106 60 99 99 99 99
 133 133 269 269 269 369 369 75 75 76 76 121 121 170 170 170 170 170 328 328
 328 328 106 106 106 106 99 99 99 99 132 133 269 269 269 369 75 75 76 76
 76 76 64 64 170 170 170 170 328 328 328 328 106 106 106 106 99 99 99 132
 132 132 269 269 269 265 265 76 76 76 76 76 182 182 182 182 170 328 328 328
 328 328 328 106 106 151 132 132 132 132 132 132 269 269 269 265 265 76 76 76
 76 76 182 182 182 182 92 92 328 328 328 328 328 106 151 151 132 132 132 132
 132 175 175 269 265 265 265 76 76 76 76 76 182 182 182 182 92 92 92 92
 328 328 328 230 236 236 236 132 132 132 320 175 175 175 265 265 76 76 76 76
 76 76 182 182 182 92 92 92 92 92 92 328 230 230 236 236 236 320 320 320
 320 175 175 79 79 37 37 76 76 76 76 76 182 280 280 280 92 92 92 92
 92 230 230 230 236 236 236 320 320 320 320 175 79 79 79 37 37 221 221 221
 221 221 280 280 280 280 92 92 92 92 92 230 230 230 236 236 236 320 320 320
 320 320 42 79 42 37 191 191 221 221 221 221 71 71 280 280 92 92 92 92
 92 92 236 236 236 236 236 320 320 320 210 210 42 42 42 191 191 191 191 191
 166 71 71 71 71 71 92 92 92 92 92 92 236 236 236 236 236 236 210 210
 210 210 42 42 42 191 191 191 191 191 166 166 71 71 71 71 172 172 172 172
 355 355 355 236 236 236 236 226 210 210 210 210 6 6 6 191 191 191 191 191
 166 166 235 71 71 71 172 172 172 172 355 355 355 254 254 254 254 254 210 210
 6 6 6 6 347 191 191 191 191 235 235 235 235 235 235 39 172 172 172 231
 355 355 355 254 254 254 254 254 210 210 6 6 6 6 347 191 191 191 191 235
 235 235 235 235 235 72 72 231 231 231 231 231 254 254 254 254 254 254 210 6
 6 6 6 6 347 347 347 191 191 235 235 235 235 235 235 72 72 231 231 231
 231 231 346 346 254 254 254 254 46 6 46 6 6 6 6 299 299 220 220 235
 235 235 235 235 72 72 72 231 231 231 231 231 346 168 346 254 254 46 46 46
 46 46 46 6 299 299 299 220 220 357 357 357 354 354 354 72 72 231 231 231
 231 93 337 346 337 206 46 46 46 46 46 46 46 46 299 299 299 220 220 357
 357 357 354 354 354 354 72 231 231 231 93 93 93 337 337 206 46 46 46 46
 46 46 46 185 185 299 299 220 220 357 357 357 354 354 354 354 72 233 233 233
 233 93 337 337 337 337 8 46 46 46 46 46 46 185 185 185 185 278 278 278
 357 357 354 354 354 216 216 233 233 233 233 233 233 337 337 8 8 8 46 46
 46 141 141 141 185 185 185 278 278 278 163 163 163 163 216 216 216 216 233 233
 233 233 233 350 350 58 8 8 8 46 141 141 141 141 185 185 185 278 278 278
 278 163 163 216 216 216 216 216 255 255 233 350 350 350 350 350 350 8 8 8
 141 141 141 141 112 112 112 278 278 278 278 163 163 91 91 216 216 255 255 255
 350 350 350 350 350 350 350 350 8 141 311 311 311 311 311 369 369 278 278 278
 278 259 91 91 162 162 162 162 290 290 350 350 350 350 350 350 350 350 311 311
 311 311 311 311 369 369 369 369 278 278 259 259 259 162 162 162 162 162 290 290
 290 350 350 350 350 350 350 350 311 311 311 311 311 311 369 369 369 369 369 259
 259 259 259 162 162 162 162 162 290 290 290 350 350 350 350 60 60 60 311 311
 311 311 311 369 369 369 369 369 238 238 238 259 259 162 162 162 162 162 290 290
 340 340 340 60 60 60 60 60 60 311 311 311 311 369 369 369 369 369 238 238
 238 238 238 162 162 162 162 162 290 340 340 340 106 60 60 60 60 60 60 311
 133 133 133 369 369 369 369 369 238 238 238 238 238 238 170 170 170 328 328 328
 340 106 106 106 60 60 60 60 60 311 133 133 133 369 369 369 369 369 238 238
 238 238 238 170 170 170 170 328 328 328 328 328 106 106 106 60 60 99 99 334
 133 133 269 269 269 369 369 369 76 76 76 238 121 170 170 170 170 328 328 328
 328 328 106 106 106 106 99 99 99 132 132 133 269 269 269 369 75 76 76 76
 76 76 182 182 170 170 170 328 328 328 328 328 328 106 106 106 106 52 132 132
 132 132 269 269 269 269 76 76 76 76 76 182 182 182 182 182 182 328 328 328
 328 328 328 151 151 151 351 52 52 132 132 132 269 269 269 80 76 76 76 76
 76 182 182 182 182 182 182 328 328 328 328 328 151 151 151 151 151 132 132 132
 132 132 322 269 80 80 76 76 76 76 76 182 182 182 182 182 92 92 92 92
 328 328 151 151 151 236 236 132 132 132 320 175 175 79 79 80 76 76 76 76
 76 182 182 182 182 182 92 92 92 92 92 328 236 236 236 236 236 236 320 320
 320 320 79 79 79 79 76 76 221 221 221 182 182 280 280 280 92 92 92 92
 92 92 236 236 236 236 236 236 320 320 320 84 79 79 79 79 79 221 221 221
 221 221 280 280 280 280 280 92 92 12 12 236 236 236 236 236 236 236 320 320
 320 84 79 79 79 79 191 221 221 221 221 221 71 71 280 280 280 92 92 12
 12 12 236 236 236 236 236 236 236 320 210 84 84 79 79 191 191 191 191 221
 221 71 71 71 71 71 172 172 92 92 12 355 236 236 236 236 236 236 210 210
 210 210 84 6 6 191 191 191 191 191 166 166 71 71 71 71 172 172 172 172
 355 355 355 236 236 236 236 236 210 210 210 6 6 6 6 191 191 191 191 235
 235 235 71 71 71 172 172 172 172 172 355 355 355 355 254 254 254 157 210 210
 6 6 6 6 6 191 191 191 191 235 235 235 235 235 71 172 172 172 172 172
 355 355 355 254 254 254 254 157 157 210 6 6 6 6 6 140 191 191 235 235
 235 235 235 235 235 172 172 172 231 231 231 355 355 254 254 254 254 157 157 6
 6 6 6 6 140 140 140 191 235 235 235 235 235 235 235 235 172 231 231 231
 231 231 346 346 254 254 254 157 157 6 46 6 6 6 140 140 140 140 235 235
 235 235 235 354 354 354 231 231 231 231 231 231 346 346 346 254 46 46 46 46
 46 46 46 46 299 299 140 140 235 235 357 354 354 354 354 354 354 231 231 231
 231 93 325 325 325 206 46 46 46 46 46 46 46 46 299 299 299 299 83 83
 357 354 354 354 354 354 354 232 231 231 93 93 325 325 325 206 46 46 46 46
 46 46 46 185 185 185 185 185 83 83 83 354 354 354 354 354 354 232 232 233
 233 93 325 325 325 337 46 46 46 46 46 46 46 185 185 185 185 185 278 83
 83 354 354 354 354 354 122 232 255 255 233 233 233 337 337 8 46 46 46 46
 283 283 283 185 185 185 185 278 278 278 278 278 163 354 122 122 122 255 255 255
 255 233 350 350 350 58 8 8 8 46 283 283 283 283 185 185 185 278 278 278
 278 278 91 91 122 122 122 255 255 255 255 350 350 350 350 350 350 356 283 283
 283 283 283 283 185 185 207 207 278 278 278 278 91 91 91 122 122 255 255 255
 255 350 350 350 350 350 350 350 356 283 311 311 311 311 369 207 207 207 207 278
 278 278 91 91 91 91 162 255 255 255 350 350 350 350 350 350 350 350 356 311
 311 311 311 311 369 369 369 207 207 278 278 91 91 91 162 162 162 162 290 290
 350 350 350 350 350 350 350 350 311 311 311 311 311 311 369 369 369 369 369 278
 259 91 91 162 162 162 162 162 290 290 350 350 350 350 350 60 60 60 311 311
 311 311 311 369 369 369 369 369 238 238 238 238 238 162 162 162 162 162 290 340
 340 340 340 60 60 60 60 60 60 311 311 311 311 369 369 369 369 369 238 238
 238 238 238 162 162 162 162 162 340 340 340 340 340 106 60 60 60 60 60 311
 133 133 133 369 369 369 369 369 238 238 238 238 238 238 316 316 316 328 328 328
 340 340 106 106 106 60 60 60 60 334 334 133 133 369 369 369 369 369 238 238
 238 238 238 316 316 316 316 328 328 328 328 328 106 106 106 60 60 60 334 334
 334 133 269 269 269 369 369 369 238 238 238 238 182 182 316 316 316 328 328 328
 328 328 106 106 106 106 60 52 52 52 52 52 269 269 269 369 369 76 76 76
 76 182 182 182 182 182 328 328 328 328 328 328 328 106 106 351 351 52 52 52
 52 322 269 269 269 80 80 76 76 76 76 182 182 182 182 182 182 328 328 328
 328 328 328 151 151 351 351 52 52 52 132 322 322 322 80 80 80 76 76 76
 76 182 182 182 182 182 182 328 328 328 328 328 151 151 151 151 351 132 132 132
 322 322 322 322 80 80 80 107 76 76 107 182 182 182 182 182 182 92 92 328
 328 328 151 151 151 236 236 236 132 132 322 322 322 79 80 80 80 107 107 107
 107 182 182 182 182 182 92 92 92 92 92 328 236 236 236 236 236 236 236 320
 322 322 79 79 79 79 107 107 221 221 221 107 20 20 280 280 280 92 92 12
 12 236 236 236 236 236 236 236 236 236 84 84 79 79 79 79 79 221 221 221
 221 221 20 280 280 280 280 92 12 12 12 236 236 236 236 236 236 236 236 236
 84 84 79 79 79 79 79 221 221 221 221 221 20 20 280 280 280 92 12 12
 12 236 236 236 236 236 236 236 236 236 84 84 84 79 79 79 191 191 221 221
 221 335 71 71 71 280 172 172 172 172 355 355 236 236 236 236 236 236 236 84
 84 84 84 84 84 313 191 191 191 221 335 335 71 71 71 172 172 172 172 172
 355 355 355 236 236 236 236 236 236 210 210 84 6 6 6 313 313 191 191 235
 235 235 335 71 71 172 172 172 172 172 355 355 355 355 254 254 157 157 157 210
 6 6 6 6 6 313 313 191 235 235 235 235 235 235 335 172 172 172 172 172
 355 355 355 355 254 254 157 157 157 157 6 6 6 6 6 140 313 191 235 235
 235 235 235 235 235 172 172 172 172 172 355 355 355 254 254 254 157 157 157 157
 157 6 6 6 140 140 140 140 235 235 235 235 235 235 235 235 172 172 231 231
 231 355 346 346 254 254 157 157 157 157 46 46 6 331 140 140 140 140 235 235
 235 235 235 354 354 354 354 231 231 231 231 231 346 346 346 254 157 157 46 46
 46 46 331 331 140 140 140 140 235 235 235 354 354 354 354 354 354 232 232 231
 231 93 325 325 325 325 46 46 46 46 46 46 331 331 331 185 185 185 83 83
 354 354 354 354 354 354 354 232 232 232 93 93 325 325 325 325 46 46 46 46
 46 46 331 331 185 185 185 185 83 83 83 354 354 354 354 354 354 232 232 232
 233 93 325 325 325 325 46 46 46 46 46 283 283 185 185 185 185 185 83 83
 83 354 354 354 354 122 122 232 232 255 255 255 289 289 289 289 46 46 46 46
 283 283 283 185 185 185 185 278 278 278 278 278 354 354 122 122 122 255 255 255
 255 255 289 289 289 289 356 356 46 283 283 283 283 283 185 185 185 278 278 278
 278 278 91 91 122 122 122 255 255 255 255 255 289 289 289 350 356 356 356 283
 283 283 283 283 185 185 207 207 278 278 278 278 91 91 91 122 122 255 255 255
 255 350 350 350 350 350 356 356 356 356 283 283 283 283 369 144 207 207 207 278
 278 91 91 91 91 91 156 255 255 255 255 350 350 350 350 350 356 356 356 356
 311 311 311 311 369 144 144 207 207 278 278 91 91 91 91 162 156 156 156 156
 350 350 350 350 350 350 356 356 356 356 311 311 311 311 369 369 369 144 144 278
 278 91 91 91 162 162 156 156 156 156 340 340 340 350 350 60 60 356 143 311
 311 311 311 369 369 369 369 369 238 238 238 238 238 162 162 162 156 156 156 340
 340 340 340 340 60 60 60 60 143 143 143 311 311 369 369 369 369 369 238 238
 238 238 238 238 162 316 316 156 156 340 340 340 340 340 60 60 60 60 143 143
 334 334 369 369 369 369 369 369 238 238 238 238 238 238 316 316 316 328 328 340
 340 340 340 106 106 60 60 60 143 334 334 334 334 369 369 369 369 369 238 238
 238 238 238 316 316 316 316 328 328 328 328 328 106 106 106 351 351 60 334 334
 334 334 269 269 269 369 369 369 238 238 238 238 182 182 316 316 316 328 328 328
 328 328 328 106 351 351 351 52 52 52 52 52 269 269 269 369 369 76 76 76
 76 182 182 182 182 182 328 328 328 328 328 328 328 328 351 351 351 52 52 52
 52 322 322 322 80 80 80 266 266 266 182 182 182 182 182 182 182 328 328 328
 328 328 151 151 351 351 351 351 52 52 322 322 322 322 80 80 80 107 107 266
 107 182 182 182 182 182 182 328 328 328 328 328 151 151 151 351 351 351 322 322
 322 322 322 322 80 80 80 107 107 107 107 182 182 182 182 182 182 92 328 328
 328 328 151 151 236 236 236 236 236 322 322 322 322 322 80 80 80 107 107 107
 107 107 182 182 182 182 182 92 92 92 328 328 236 236 236 236 236 236 236 322
 322 322 79 79 79 80 107 107 107 107 107 107 20 20 20 280 280 280 12 12
 12 12 236 236 236 236 236 236 236 361 361 84 79 79 79 79 107 107 221 221
 221 20 20 20 280 280 280 280 12 12 12 236 236 236 236 236 236 236 236 361
 84 84 84 79 79 79 107 107 221 221 221 20 20 20 20 280 280 280 12 12
 12 12 236 236 236 236 236 236 236 361 84 84 84 84 79 313 313 313 221 221
 221 335 335 335 335 280 172 172 172 172 355 355 236 236 236 236 236 236 236 84
 84 84 84 84 84 313 313 313 313 235 335 335 335 335 335 335 172 172 172 172
 355 355 355 236 236 236 236 236 236 84 84 84 84 84 313 313 313 313 313 235
 235 235 335 335 335 335 172 172 172 172 355 355 355 355 236 157 157 157 157 157
 157 157 16 16 16 313 313 313 235 235 235 235 335 335 335 335 172 172 172 172
 355 355 355 355 254 157 157 157 157 157 157 157 16 16 16 16 313 313 235 235
 235 235 235 235 335 335 172 172 172 172 355 355 355 355 254 157 157 157 157 157
 157 157 16 16 16 140 140 235 235 235 235 235 235 235 235 298 172 172 126 126
 126 126 355 346 157 157 157 157 157 157 157 331 331 331 140 140 140 140 235 235
 235 235 235 354 354 354 298 126 126 126 126 126 325 325 325 157 157 157 157 157
 46 331 331 331 331 140 140 140 115 235 235 354 354 354 354 354 354 232 232 126
 126 126 325 325 325 325 46 46 46 46 46 331 331 331 331 331 185 185 278 83
 354 354 354 354 354 354 232 232 232 232 232 325 325 325 325 325 46 46 46 46
 46 331 331 331 331 185 185 185 278 83 83 354 354 354 354 354 232 232 232 232
 232 325 325 325 325 325 46 46 46 46 46 331 331 331 185 185 185 185 278 83
 278 85 354 354 354 354 232 232 232 232 255 289 289 289 289 289 46 46 46 46
 283 283 283 185 185 185 185 278 278 278 278 85 85 85 122 122 122 255 255 255
 255 289 289 289 289 289 356 356 356 283 283 283 283 283 185 185 185 278 278 278
 278 85 85 91 122 122 122 255 255 255 255 289 289 289 289 289 356 356 356 356
 283 283 283 283 185 144 207 207 278 278 278 278 91 91 91 122 122 255 255 255
 255 289 289 289 289 356 356 356 356 356 283 283 283 283 144 144 207 207 207 278
 278 91 91 91 91 91 156 156 156 255 255 289 289 289 350 356 356 356 356 356
 177 177 177 177 144 144 144 144 207 278 278 91 91 91 91 156 156 156 156 156
 209 209 209 350 350 356 356 356 356 356 177 177 177 144 144 144 144 144 144 144
 238 91 91 91 91 156 156 156 156 156 209 209 209 350 239 239 239 356 143 143
 143 177 177 144 144 144 144 144 238 238 238 238 248 248 248 156 156 156 156 156
 340 340 340 239 239 239 239 239 143 143 143 143 177 144 144 144 144 144 238 238
 238 238 238 248 248 156 156 156 156 340 340 340 340 340 239 239 239 239 143 143
 334 334 334 369 369 144 144 263 263 238 238 238 238 248 248 316 316 156 328 340
 340 340 340 239 239 239 239 239 143 143 334 334 334 369 369 369 369 263 263 263
 263 263 263 248 316 316 316 328 328 328 328 328 328 351 351 351 351 239 334 334
 334 334 334 269 269 369 369 263 263 263 263 263 182 182 316 316 316 328 328 328
 328 328 328 351 351 351 351 351 52 52 52 334 322 269 269 369 263 263 263 263
 263 182 182 182 182 182 328 328 328 328 328 328 328 351 351 351 351 351 52 52
 322 322 322 322 322 80 80 266 266 266 266 182 182 182 182 182 182 328 328 328
 328 328 328 351 351 351 351 351 52 52 322 322 322 322 80 80 80 107 266 266
 266 182 182 182 182 182 182 328 328 328 328 328 328 351 351 351 351 351 322 322
 322 322 322 322 80 80 80 107 107 107 107 107 182 182 182 182 182 328 328 328
 328 328 151 151 236 236 236 236 322 322 322 322 322 322 80 80 80 107 107 107
 107 107 20 20 20 182 280 73 73 73 328 328 236 236 236 236 236 236 361 322
 361 322 322 322 79 80 107 107 107 107 107 107 20 20 20 280 280 73 73 73
 12 236 236 236 236 236 236 236 361 361 361 361 124 79 79 79 107 107 107 107
 107 20 20 20 20 280 280 73 73 73 12 236 236 236 236 236 236 236 361 361
 361 84 84 124 124 313 313 107 107 107 107 20 20 20 20 20 280 73 73 73
 12 236 236 236 236 236 236 236 361 361 84 84 84 84 84 313 313 313 107 107
 14 14 335 335 335 335 280 172 73 73 355 355 236 236 236 236 236 236 361 361
 84 84 84 84 313 313 313 313 313 313 14 335 335 335 335 335 172 172 172 172
 355 355 355 236 236 236 236 236 361 84 84 84 84 84 313 313 313 313 313 235
 235 335 335 335 335 335 172 172 172 172 355 355 355 355 236 157 157 157 157 157
 157 157 16 16 16 313 313 313 313 235 235 235 335 335 335 335 172 172 172 172
 355 355 355 355 157 157 157 157 157 157 157 157 16 16 16 16 313 115 115 235
 235 235 235 335 335 335 172 172 172 126 126 355 355 157 157 157 157 157 157 157
 157 157 16 16 16 16 115 115 115 115 235 235 235 235 298 298 298 126 126 126
 126 126 126 157 157 157 157 157 157 157 157 331 331 331 331 331 115 115 115 115
 235 235 235 235 298 298 298 298 126 126 126 126 325 325 157 157 157 157 157 157
 157 331 331 331 331 331 331 115 115 115 115 354 354 354 354 298 298 232 232 126
 126 126 325 325 325 157 157 157 157 157 331 331 331 331 331 331 331 331 115 115
 85 354 354 354 354 354 232 232 232 232 232 36 36 36 325 325 157 46 46 46
 331 331 331 331 331 331 185 185 278 83 85 85 354 354 354 354 232 232 232 232
 36 36 36 36 325 104 104 46 46 46 331 331 331 331 331 185 185 185 278 278
 85 85 85 85 354 354 232 232 232 232 36 36 36 289 289 289 356 356 356 46
 283 283 283 185 185 185 185 278 278 278 85 85 85 85 85 122 122 232 232 255
 36 36 289 289 289 289 356 356 356 356 283 283 283 283 185 185 185 278 278 278
 85 85 85 85 85 122 122 255 255 255 255 289 289 289 289 289 356 356 356 356
 283 283 283 283 144 144 144 144 278 278 85 85 85 85 85 122 122 156 255 255
 255 289 289 289 289 356 356 356 356 356 177 177 177 144 144 144 144 144 144 278
 85 85 85 91 91 91 156 156 156 255 209 209 289 289 289 356 356 356 356 356
 177 177 177 144 144 144 144 144 144 144 85 91 91 91 91 156 156 156 156 156
 209 209 209 209 209 356 356 356 356 356 177 177 177 144 144 144 144 144 144 144
 263 248 248 248 248 156 156 156 156 156 209 209 209 209 239 239 239 356 143 143
 143 177 177 144 144 144 144 144 144 263 263 263 248 248 248 156 156 156 156 156
 209 209 209 239 239 239 239 239 143 143 143 143 177 144 144 144 144 144 263 263
 263 263 248 248 248 248 156 156 156 340 340 340 340 239 239 239 239 239 143 143
 143 143 143 144 144 144 144 263 263 263 263 263 248 248 248 248 316 156 156 340
 340 340 340 239 239 239 239 239 143 143 334 334 334 7 144 144 263 263 263 263
 263 263 263 248 248 248 316 328 328 328 328 328 218 218 351 351 351 239 334 334
 334 334 322 7 7 144 263 263 263 263 263 263 263 248 248 316 316 328 328 328
 328 328 328 351 351 351 351 351 52 334 52 322 322 322 7 263 263 263 263 263
 263 263 182 182 182 182 328 328 328 328 328 328 328 351 351 351 351 351 52 52
 322 322 322 322 2 2 2 263 263 266 263 182 182 182 182 182 182 171 171 171
 328 328 328 351 351 351 351 351 277 277 322 322 322 322 2 2 2 107 107 266
 107 107 182 182 182 182 182 328 328 171 328 328 117 117 117 351 351 351 322 322
 322 322 322 322 322 2 80 107 107 107 107 107 182 182 182 182 73 73 73 73
 328 328 117 117 117 117 236 322 322 322 322 322 322 322 322 80 107 107 107 107
 107 107 20 20 20 20 73 73 73 73 73 344 236 236 236 236 236 361 361 361
 361 322 322 124 124 124 107 107 107 107 107 107 20 20 20 20 73 73 73 73
 73 236 236 236 236 236 236 361 361 361 361 361 124 124 124 124 107 107 107 107
 107 20 20 20 20 20 73 73 73 73 73 236 236 236 236 236 236 361 361 361
 361 361 124 124 124 124 107 107 107 107 14 14 20 20 20 20 73 73 73 73
 73 236 236 236 236 236 236 361 361 361 361 84 84 84 124 313 313 313 107 14
 14 14 14 335 335 335 73 73 73 73 73 355 34 34 236 236 236 361 361 361
 84 84 84 84 313 313 313 313 313 14 14 14 335 335 335 335 73 172 73 73
 355 355 34 34 34 236 236 157 361 361 84 84 84 16 313 313 313 313 115 115
 115 335 335 335 335 335 172 172 172 172 355 355 34 34 34 157 157 157 157 157
 157 157 16 16 16 313 313 313 115 115 115 335 335 335 335 335 172 172 172 172
 355 355 34 34 157 157 157 157 157 157 157 157 16 16 16 16 115 115 115 115
 115 115 335 335 335 298 298 298 126 126 126 126 34 34 157 157 157 157 157 157
 157 157 16 16 16 16 115 115 115 115 115 115 115 298 298 298 298 298 126 126