# vtk DataFile Version 2.0
Data set from IO Version 6.4.197.9a0dee2
ASCII

DATASET RECTILINEAR_GRID
DIMENSIONS 31 31 31
X_COORDINATES 31 float
-2.566667 2.566667 7.700000 12.833333 17.966667 23.099998 28.233334 33.366669 38.500000 43.633331 48.766666 53.900002 59.033333 64.166664 69.300003 74.433334 79.566666 84.699997 89.833328 94.966667 100.099998 
105.233330 110.366669 115.500000 120.633331 125.766663 130.899994 136.033325 141.166672 146.300003 151.433334 
Y_COORDINATES 31 float
-2.566667 2.566667 7.700000 12.833333 17.966667 23.099998 28.233334 33.366669 38.500000 43.633331 48.766666 53.900002 59.033333 64.166664 69.300003 74.433334 79.566666 84.699997 89.833328 94.966667 100.099998 
105.233330 110.366669 115.500000 120.633331 125.766663 130.899994 136.033325 141.166672 146.300003 151.433334 
Z_COORDINATES 31 float
-2.566667 2.566667 7.700000 12.833333 17.966667 23.099998 28.233334 33.366669 38.500000 43.633331 48.766666 53.900002 59.033333 64.166664 69.300003 74.433334 79.566666 84.699997 89.833328 94.966667 100.099998 
105.233330 110.366669 115.500000 120.633331 125.766663 130.899994 136.033325 141.166672 146.300003 151.433334 
CELL_DATA 27000
SCALARS FeatureIds int 1
LOOKUP_TABLE default
 66 65 164 164 164 164 179 179 179 189 189 189 189 189 189 189 27 27 27 27
 197 8 8 8 66 66 66 66 66 66 66 202 202 202 202 202 202 333 333 37
 37 189 189 189 189 189 27 27 27 27 197 330 330 330 66 66 66 66 66 66
 66 202 202 202 202 202 333 333 333 333 37 37 37 189 189 189 27 27 27 27
 197 330 330 330 66 66 66 66 66 66 202 202 202 202 202 149 333 333 333 333
 37 37 37 37 189 40 40 40 40 204 204 330 330 330 330 66 66 66 66 66
 202 202 202 202 202 202 333 333 333 333 37 37 37 37 37 40 40 40 204 204
 204 204 330 330 234 234 234 66 66 66 202 202 202 202 202 202 202 333 5 5
 37 37 37 104 104 104 104 204 204 204 204 204 10 10 234 234 234 234 66 352
 117 117 188 188 188 202 147 147 5 5 5 5 37 104 104 104 104 204 204 204
 204 204 10 10 234 234 234 234 54 55 117 117 188 188 188 188 147 147 147 5
 5 5 5 104 104 104 104 204 204 204 204 204 308 10 10 234 54 54 54 55
 55 117 200 200 200 200 147 147 5 5 5 198 39 39 104 104 104 204 204 204
 204 204 308 308 10 54 54 54 54 55 55 55 200 200 200 200 147 147 5 5
 198 198 39 39 39 104 104 204 204 204 204 308 308 308 10 54 54 54 54 55
 55 55 200 200 200 200 219 219 219 255 255 255 39 39 39 39 104 204 204 204
 204 308 308 308 54 54 54 54 54 55 159 87 200 200 200 200 219 219 219 255
 255 255 255 39 39 39 409 409 409 204 204 308 241 241 241 54 54 54 54 159
 159 87 87 87 87 87 219 219 219 255 255 255 255 39 286 286 409 409 409 409
 409 318 241 241 241 241 241 159 159 159 159 87 87 87 87 87 400 70 70 255
 255 75 75 75 286 286 286 409 409 409 318 318 318 241 241 241 241 159 159 159
 159 87 87 87 87 400 400 70 70 70 75 75 75 286 286 286 86 86 409 409
 318 318 318 318 241 241 241 159 159 159 159 87 87 400 400 400 400 70 70 70
 214 75 75 286 286 286 86 86 86 86 318 318 318 318 299 299 170 170 170 159
 23 338 338 338 400 400 400 70 70 214 214 214 214 286 286 286 121 86 121 121
 119 119 318 318 299 299 170 170 170 170 23 23 338 338 338 400 400 70 214 214
 214 214 214 214 121 121 121 121 121 121 119 119 119 318 318 80 170 170 23 23
 23 23 338 338 338 400 400 214 214 214 214 214 214 214 121 121 121 121 121 121
 119 119 119 80 80 80 80 170 23 23 23 23 99 99 99 99 194 194 214 214
 214 214 214 214 121 121 121 121 121 121 121 119 119 80 80 80 80 140 23 23
 23 99 99 99 99 99 194 194 194 214 214 214 214 289 121 121 121 121 121 121
 121 119 119 80 80 80 140 140 140 23 99 99 99 99 99 99 194 194 194 194
 214 214 289 289 289 121 121 121 121 121 121 222 183 183 183 183 140 140 140 140
 99 99 99 99 99 99 194 194 194 194 214 214 289 289 289 121 121 121 121 121
 222 222 222 183 183 183 183 140 140 140 256 256 256 99 99 99 194 194 194 194
 214 214 289 289 289 406 121 121 121 222 222 222 222 183 183 183 183 183 140 140
 256 256 256 256 99 99 194 194 194 194 214 214 406 406 406 406 406 406 406 222
 222 222 8 183 183 183 183 183 45 228 228 256 145 145 145 145 17 17 17 17
 189 189 406 406 406 406 406 406 406 375 222 8 8 8 8 8 8 45 45 228
 228 228 145 145 145 145 17 17 17 17 189 189 189 189 406 406 406 406 375 375
 375 8 8 8 8 8 8 45 228 228 228 228 145 145 145 145 17 17 17 17
 189 189 189 189 189 189 189 375 375 375 375 8 8 8 8 8 45 45 228 228
 228 65 164 145 145 145 17 17 17 17 189 189 189 189 189 189 189 189 375 375
 8 8 8 8 8 8 45 45 228 228 65 65 164 164 164 145 17 17 17 17
 189 189 189 189 189 189 189 189 375 375 8 8 8 8 8 66 66 66 66 66
 66 202 202 202 202 202 179 179 179 179 189 189 189 189 189 189 189 27 197 197
 197 8 8 8 66 66 66 66 66 66 66 202 202 202 202 202 179 179 179 179
 37 189 189 189 189 189 189 197 197 197 197 197 330 330 66 66 66 66 66 66
 66 202 202 202 202 202 333 333 333 333 37 37 37 189 189 40 40 40 197 197
 197 197 330 330 66 66 66 66 66 66 202 202 202 202 202 202 333 333 333 333
 37 37 37 37 40 40 40 40 40 197 197 197 330 330 66 66 66 66 66 66
 352 202 202 202 202 202 333 333 333 333 37 37 37 37 40 40 40 40 40 204
 204 204 10 10 234 234 66 66 66 66 352 352 202 202 202 202 333 333 333 333
 37 37 37 104 104 104 104 40 204 204 204 204 10 10 10 234 234 234 66 352
 352 352 188 188 188 202 147 147 147 5 5 30 30 104 104 104 104 204 204 204
 204 204 10 10 10 234 234 234 54 352 352 352 188 188 188 188 147 147 147 5
 5 30 30 104 104 104 104 204 204 204 204 204 10 10 10 10 54 54 54 54
 55 117 188 188 188 200 147 147 147 5 5 30 30 104 104 104 104 204 204 204
 204 204 10 10 10 54 54 54 54 54 55 55 200 200 200 200 147 147 147 5
 255 255 255 39 104 104 104 204 204 204 204 204 10 10 10 54 54 54 54 54
 55 200 200 200 200 200 219 219 219 255 255 255 255 39 39 104 104 204 204 204
 204 204 10 10 10 54 54 54 54 54 159 87 87 87 87 200 219 219 219 255
 255 255 255 255 255 104 209 209 204 204 204 204 10 241 241 54 54 54 54 54
 159 87 87 87 87 87 219 219 219 255 255 255 255 255 255 209 209 409 409 409
 409 318 318 241 241 241 54 54 159 159 159 87 87 87 87 87 87 70 70 255
 255 255 255 75 286 286 409 409 409 409 318 318 318 318 241 241 241 159 159 159
 266 87 87 87 87 87 70 70 70 70 255 75 75 286 286 286 86 409 409 409
 318 318 318 318 318 318 170 170 170 170 266 266 87 87 400 400 70 70 70 70
 214 75 286 286 286 286 86 86 86 318 318 318 318 318 318 318 170 170 170 170
 266 266 266 400 400 400 70 70 70 70 214 214 214 286 286 121 121 121 121 119
 119 119 318 318 318 318 170 170 170 170 23 266 338 338 321 321 321 70 70 214
 214 214 214 214 121 121 121 121 121 119 119 119 119 318 80 80 170 170 170 170
 23 23 338 338 321 321 321 321 214 214 214 214 214 214 121 121 121 121 121 121
 119 119 119 80 80 80 80 80 23 23 23 243 99 99 99 99 321 194 214 214
 214 214 214 214 121 121 121 121 121 121 119 119 119 80 80 80 80 80 23 23
 180 180 99 99 99 99 194 194 194 214 214 214 214 214 121 121 121 121 121 121
 121 119 119 80 80 80 80 140 180 180 180 99 99 99 99 99 194 194 194 214
 214 214 214 289 289 121 121 121 121 121 222 222 222 183 183 183 183 140 180 180
 180 256 99 99 99 99 194 194 194 194 214 214 289 289 289 121 121 121 121 222
 222 222 222 183 183 183 183 183 180 180 256 256 256 256 99 99 194 194 194 355
 355 355 355 406 406 406 406 406 222 222 222 222 222 183 183 183 183 183 180 180
 256 256 256 256 99 99 343 194 343 355 355 203 406 406 406 406 406 406 406 222
 222 222 222 183 183 183 183 183 228 180 228 256 256 145 145 145 343 343 343 343
 203 203 203 406 406 406 406 406 406 375 222 8 8 8 8 8 8 228 228 228
 228 228 145 145 145 145 343 343 343 343 203 203 203 189 406 406 406 406 375 375
 375 8 8 8 8 8 8 228 228 228 228 228 145 145 145 145 343 343 343 343
 203 189 189 189 189 189 189 406 375 375 375 8 8 8 8 8 8 228 228 228
 228 228 145 145 145 145 343 343 343 343 189 189 189 189 189 189 189 189 375 375
 375 8 8 8 8 8 8 228 228 228 228 228 164 164 145 145 343 343 343 343
 189 189 189 189 189 189 189 189 375 375 375 8 8 8 8 66 66 66 66 66
 66 66 202 202 202 179 179 179 179 179 189 189 189 189 189 189 189 197 197 197
 197 197 8 8 66 66 66 66 66 66 66 202 202 202 202 179 179 179 179 179
 37 189 189 189 189 189 189 197 197 197 197 197 8 8 66 66 66 66 66 66
 66 202 202 202 202 202 179 179 179 179 37 37 37 189 189 40 40 40 197 197
 197 197 197 66 66 66 66 66 66 66 352 202 202 202 202 202 333 333 333 333
 37 37 37 37 40 40 40 40 40 197 197 197 197 52 52 52 66 66 66 66
 352 352 202 202 202 202 333 333 333 333 37 37 37 37 40 40 40 40 40 359
 204 10 10 10 52 52 52 66 66 352 352 352 352 202 202 202 202 333 333 333
 37 37 37 104 104 104 40 40 204 359 204 10 10 10 10 10 234 66 352 352
 352 352 352 188 188 202 147 147 147 30 30 30 30 104 104 104 104 204 204 204
 204 10 10 10 10 10 61 61 61 352 352 352 188 188 188 188 147 147 147 30
 30 30 30 104 104 104 104 204 204 204 204 10 10 10 10 10 61 61 61 352
 352 352 188 188 188 200 147 147 147 147 30 30 30 104 104 104 104 204 204 204
 204 10 10 10 10 10 54 54 54 54 55 55 200 200 200 200 147 147 147 147
 255 255 255 104 104 104 104 204 204 204 204 10 10 10 10 54 54 54 54 54
 128 128 200 200 200 200 219 219 219 255 255 255 255 255 104 104 104 204 204 204
 204 10 10 10 108 108 54 54 54 54 128 87 87 87 87 87 219 219 219 255
 255 255 255 255 255 209 209 209 209 204 304 304 304 10 108 108 108 54 54 128
 128 87 87 87 87 87 219 219 219 255 255 255 255 255 209 209 209 209 409 409
 304 318 318 108 108 108 108 54 128 128 266 87 87 87 87 87 87 70 70 255
 255 255 255 255 209 209 209 209 409 409 318 318 318 318 318 241 108 170 170 170
 266 266 266 87 87 87 70 70 70 70 255 255 255 286 286 209 339 339 339 339
 318 318 318 318 318 318 170 170 170 170 266 266 266 87 87 321 70 70 70 70
 255 255 286 286 286 339 339 339 339 339 318 318 318 318 318 269 170 170 170 170
 266 266 266 321 321 321 321 70 70 70 214 214 232 232 232 302 339 339 339 119
 119 119 318 318 269 269 170 170 170 170 266 266 266 321 321 321 321 321 321 214
 214 214 232 232 232 232 121 121 121 119 119 119 119 269 269 269 170 170 170 170
 243 243 243 321 321 321 321 321 321 214 214 214 214 232 232 121 121 121 121 48
 48 119 119 80 80 80 80 170 23 180 243 243 243 321 321 321 321 321 214 214
 214 214 229 229 229 121 121 121 121 48 48 48 48 80 80 80 80 180 180 180
 180 243 243 99 99 99 321 194 194 214 214 214 229 229 217 217 217 121 121 48
 48 48 48 80 80 80 80 180 180 180 180 180 99 99 99 99 194 194 194 214
 214 214 214 289 217 217 217 121 121 121 48 48 48 183 183 183 183 180 180 180
 180 180 256 99 99 99 194 194 194 355 355 355 355 217 217 217 217 217 121 222
 222 222 222 183 183 183 183 180 180 180 180 256 256 256 99 99 327 194 355 355
 355 355 355 355 406 406 406 406 222 222 222 222 222 183 183 183 183 183 180 180
 309 256 256 256 99 343 343 343 343 355 355 355 355 203 406 406 406 406 406 222
 222 222 222 183 183 183 183 183 309 309 309 256 256 145 145 343 343 343 343 343
 355 203 203 203 406 406 406 406 406 375 222 8 8 8 8 8 8 309 309 309
 228 228 275 275 145 343 343 343 343 343 203 203 203 203 406 406 406 406 375 375
 375 8 8 8 8 8 8 228 228 228 228 228 275 275 275 343 343 343 343 343
 203 203 203 189 189 189 189 375 375 375 375 8 8 8 8 8 8 228 228 228
 228 228 275 275 275 343 343 343 343 343 203 203 189 189 189 189 189 189 375 375
 8 8 8 8 8 8 8 66 228 228 66 228 275 275 275 343 343 343 343 343
 189 189 189 189 189 189 189 189 197 197 197 8 8 8 8 66 66 66 66 66
 66 66 202 202 179 179 179 179 179 179 189 189 189 189 189 189 189 197 197 197
 197 197 8 8 66 66 66 66 66 66 66 202 202 202 202 179 179 179 179 179
 37 189 189 189 189 189 189 197 197 197 197 197 197 66 66 66 66 66 66 66
 316 316 202 202 202 202 179 179 179 179 37 37 37 189 189 40 40 197 197 197
 197 197 197 52 52 52 66 66 66 66 316 352 202 202 202 202 179 179 179 179
 37 37 37 141 40 40 40 40 197 197 197 197 52 52 52 52 52 66 66 316
 352 352 352 202 202 202 179 333 333 333 37 37 37 141 40 40 40 40 40 220
 220 10 10 10 52 52 52 66 66 352 352 352 352 352 202 202 345 333 333 30
 30 30 37 141 40 40 40 40 220 220 220 10 10 10 10 10 52 61 352 352
 352 352 352 352 188 345 147 147 147 30 30 30 30 104 104 104 104 204 204 220
 204 10 10 10 10 10 61 61 61 352 352 352 352 352 188 188 147 147 147 30
 30 30 30 30 104 104 104 204 204 204 204 10 10 10 10 10 61 61 61 352
 352 352 352 188 188 200 147 147 147 30 30 30 30 30 104 104 104 204 204 204
 204 10 10 10 10 10 61 61 61 54 128 352 352 200 200 200 147 147 147 30
 30 30 30 30 104 104 104 204 204 204 204 10 10 10 10 10 54 54 54 54
 128 128 128 200 200 200 219 219 219 255 255 255 255 107 104 104 104 209 204 204
 304 304 304 304 108 108 108 54 54 128 128 128 87 87 87 87 219 219 219 255
 255 255 255 255 209 209 209 209 209 304 304 304 304 304 108 108 108 54 128 128
 128 128 87 87 87 87 219 219 219 255 255 255 255 255 209 209 209 209 209 304
 304 304 304 304 108 108 108 128 128 128 128 266 266 87 87 87 87 70 70 255
 255 255 255 302 302 209 209 209 209 209 304 318 318 318 108 108 108 128 128 128
 266 266 266 266 87 87 70 70 70 70 255 255 190 302 302 302 339 339 339 339
 318 318 318 318 269 269 170 170 170 266 266 266 266 266 321 321 321 321 70 123
 123 190 190 302 302 302 339 339 339 339 318 318 318 318 269 269 170 170 170 266
 266 266 266 321 321 321 321 321 321 123 123 232 232 232 232 302 339 339 339 48
 48 48 318 269 269 269 269 170 170 266 266 266 266 321 321 321 321 321 321 214
 214 232 232 232 232 232 339 121 48 48 48 48 48 269 269 269 269 115 115 266
 243 243 243 321 321 321 321 321 321 214 214 214 232 232 232 232 121 121 48 48
 48 48 48 48 269 269 269 115 115 180 243 243 243 243 321 321 321 321 120 120
 120 120 229 229 229 232 121 121 48 48 48 48 48 48 392 392 392 180 180 180
 180 243 243 243 99 327 327 327 120 120 120 120 229 229 217 217 217 121 48 48
 48 48 48 353 392 392 392 180 180 180 180 180 180 99 327 327 327 327 120 120
 120 120 120 229 217 217 217 217 285 285 48 48 353 353 353 183 180 180 180 180
 180 180 180 327 327 327 327 327 327 120 120 355 355 355 217 217 217 217 285 285
 222 353 353 353 183 183 183 180 180 180 180 180 256 256 327 327 327 327 355 355
 355 355 355 355 217 406 217 217 285 222 222 222 353 183 183 183 183 180 180 180
 309 256 256 256 259 259 327 343 355 247 355 355 355 355 406 406 406 406 406 222
 222 222 222 183 183 183 183 180 309 309 309 256 275 275 259 259 343 343 343 355
 355 355 203 203 203 406 406 406 41 41 41 8 8 8 8 8 8 309 309 309
 309 275 275 275 275 343 343 343 343 343 203 203 203 203 203 406 406 41 41 41
 41 8 8 8 8 8 8 228 309 309 228 275 275 275 275 343 343 343 343 343
 203 203 203 203 203 189 189 375 375 41 375 8 8 8 8 8 8 228 228 228
 228 228 275 275 275 343 343 343 343 343 203 203 203 203 189 189 189 189 375 375
 8 8 8 8 8 8 8 66 66 228 66 275 275 275 275 343 343 343 343 343
 203 203 189 189 189 189 189 189 197 197 197 8 8 8 8 66 66 66 66 66
 233 233 233 11 11 179 179 179 179 179 203 203 203 189 189 189 189 197 197 197
 197 2 2 2 311 311 66 66 66 66 316 316 316 316 11 179 179 179 179 179
 179 189 189 189 189 189 197 197 197 197 197 197 2 311 311 311 66 66 66 66
 316 316 316 316 11 11 179 179 179 179 37 141 141 141 141 40 221 221 197 197
 197 197 197 52 52 52 66 66 66 316 316 316 316 316 202 202 179 179 179 179
 37 141 141 141 141 40 221 221 221 197 197 197 52 52 52 52 52 66 66 316
 316 316 316 316 345 345 345 179 179 38 37 141 141 141 141 40 40 221 221 359
 220 10 10 10 52 52 52 66 316 316 352 352 352 352 345 345 345 345 38 38
 30 30 141 141 141 40 40 40 220 359 220 10 10 10 10 10 52 61 352 352
 352 352 352 352 345 345 345 345 38 30 30 30 30 141 104 104 104 204 204 359
 10 10 10 10 10 10 61 61 61 352 352 352 352 352 345 345 345 345 30 30
 30 30 30 30 104 336 336 204 204 204 10 10 10 10 10 10 61 61 61 352
 352 352 352 352 188 345 147 147 30 30 30 30 30 30 104 336 336 336 204 204
 304 10 10 10 10 10 10 61 61 352 128 128 273 273 273 387 387 387 107 107
 107 107 107 107 336 336 336 336 336 304 304 304 304 10 10 10 10 54 54 128
 128 128 273 273 273 387 387 387 387 107 107 107 107 107 107 336 336 336 336 304
 304 304 304 304 304 108 108 54 128 128 128 128 273 273 273 273 387 219 387 107
 107 107 107 107 209 209 209 209 209 304 304 304 304 304 108 108 108 128 128 128
 128 128 273 273 273 387 387 387 387 107 107 107 107 107 209 209 209 209 209 304
 304 304 304 304 108 108 108 128 128 128 128 128 266 266 87 87 387 387 123 123
 123 190 190 302 302 209 209 209 209 356 304 304 304 304 108 108 108 128 128 128
 266 266 266 266 87 321 321 123 123 123 123 190 190 302 302 302 302 339 339 356
 356 318 318 269 269 269 170 170 21 21 266 266 266 266 321 321 321 123 123 123
 123 190 190 302 302 302 302 339 339 339 48 318 318 269 269 269 269 170 21 21
 266 266 266 266 321 321 321 321 123 123 123 232 232 232 302 302 302 339 339 48
 48 48 48 269 269 269 269 115 115 21 266 266 266 321 321 321 321 321 123 123
 123 232 232 232 232 232 302 339 48 48 48 48 48 269 269 269 269 115 115 21
 243 243 243 321 321 321 321 321 321 120 120 232 232 232 232 232 302 48 48 48
 48 48 48 48 392 392 392 115 115 180 243 243 243 243 321 321 321 321 120 120
 120 120 232 232 232 232 232 48 48 48 48 48 48 48 392 392 392 392 180 180
 180 243 243 243 327 327 327 327 120 120 120 120 399 399 399 217 217 174 285 285
 48 48 48 353 392 392 392 180 180 180 180 180 180 327 327 327 327 327 120 120
 120 120 120 399 217 217 217 174 285 285 285 48 353 353 353 353 392 180 180 180
 180 180 180 327 327 327 327 327 120 120 120 355 355 355 217 217 217 174 285 285
 285 353 353 353 353 353 183 180 180 180 180 180 256 327 327 327 327 327 355 247
 355 355 355 355 217 217 217 174 285 285 285 353 353 353 353 353 183 180 180 180
 309 256 256 259 259 259 259 327 247 247 355 355 355 355 406 406 406 41 41 41
 41 143 143 143 143 183 183 180 309 309 309 309 275 275 259 259 259 343 343 355
 355 355 355 203 203 406 406 41 41 41 41 41 143 143 143 8 8 309 309 309
 309 275 275 275 259 259 343 343 343 343 203 203 203 203 203 406 41 41 41 41
 41 8 143 143 143 8 331 309 309 309 228 275 275 275 275 343 343 343 343 343
 203 203 203 203 203 189 41 41 41 41 41 8 8 8 8 8 331 331 228 228
 233 233 275 275 275 343 343 343 343 343 203 203 203 203 203 189 189 131 131 131
 2 2 8 8 8 8 66 66 66 228 233 233 233 275 275 343 343 343 343 343
 203 203 203 203 189 189 189 197 197 197 2 2 2 8 8 66 66 66 66 66
 233 233 233 11 11 11 11 179 179 144 203 203 203 205 205 251 251 251 131 131
 131 2 2 2 311 311 311 66 66 66 316 316 316 11 11 11 11 179 179 179
 144 141 141 205 205 251 251 251 251 197 131 131 2 311 311 311 311 66 66 316
 316 316 316 316 11 11 11 179 179 179 141 141 141 141 141 221 221 221 221 197
 197 197 2 311 311 311 311 66 66 316 316 316 316 316 11 11 11 11 179 38
 141 141 141 141 141 141 221 221 221 221 221 221 258 258 52 52 52 66 316 316
 316 316 316 316 345 345 345 11 38 38 38 141 141 141 141 141 221 221 221 221
 221 10 10 10 52 52 52 66 316 316 352 352 316 316 345 345 345 345 38 38
 38 38 141 141 141 141 221 221 221 221 220 10 10 10 10 10 71 71 352 352
 352 352 352 352 345 345 345 345 38 38 38 38 30 141 141 336 336 221 221 359
 10 10 10 10 10 10 71 71 71 352 352 352 352 352 345 345 345 38 38 38
 38 30 30 107 336 336 336 336 336 304 304 304 10 10 10 10 71 71 71 352
 352 352 334 334 345 345 387 38 38 107 107 107 107 107 107 336 336 336 336 304
 304 304 304 10 10 10 10 71 71 352 128 128 273 273 273 387 387 387 107 107
 107 107 107 107 107 336 336 336 336 304 304 304 304 304 304 10 10 71 71 128
 128 128 273 273 273 387 387 387 387 107 107 107 107 107 107 336 336 336 336 304
 304 304 304 304 304 108 108 136 128 128 128 128 273 273 273 387 387 387 387 107
 107 107 107 107 107 209 209 336 336 304 304 304 304 304 304 108 108 128 128 128
 128 128 273 273 273 387 387 387 387 107 107 107 107 107 107 209 209 209 209 304
 304 304 304 304 304 108 108 128 128 128 128 128 266 273 387 387 387 387 123 123
 123 190 190 16 302 302 302 209 356 356 356 304 304 304 304 287 287 287 128 128
 21 266 266 266 387 387 387 123 123 123 123 190 190 190 302 302 302 302 356 356
 356 356 304 269 269 287 287 287 21 21 21 266 266 266 321 321 123 123 123 123
 123 190 190 190 302 302 302 302 339 356 356 82 82 269 269 269 287 287 21 21
 21 266 266 266 321 321 123 123 123 123 123 190 190 190 302 302 302 302 302 48
 82 82 82 269 269 269 115 115 21 21 266 266 266 321 321 321 321 123 123 123
 123 190 232 232 232 302 302 302 48 48 48 48 48 269 269 269 115 115 115 21
 243 243 243 321 321 321 321 321 123 123 120 232 232 232 232 232 302 351 48 48
 48 48 48 48 392 392 392 115 115 21 243 243 243 243 321 321 321 321 120 120
 120 120 399 399 399 399 351 351 48 48 48 48 48 353 392 392 392 392 115 180
 180 243 243 177 327 327 327 327 120 120 120 120 399 399 399 399 174 174 285 285
 285 48 353 353 353 392 392 392 180 180 180 180 180 327 327 327 327 327 120 120
 120 120 399 399 399 399 174 174 285 285 285 353 353 353 353 392 392 180 180 180
 180 180 327 327 327 327 327 327 120 120 120 355 355 267 267 217 174 174 285 285
 285 353 353 353 353 353 392 180 180 180 180 180 327 327 327 327 327 327 355 355
 355 355 355 355 355 217 174 174 285 285 285 353 353 353 353 353 353 180 180 180
 309 256 259 259 259 259 259 327 355 355 355 355 355 355 355 406 41 41 41 41
 41 143 143 143 143 353 353 180 309 309 309 309 275 259 259 259 259 259 355 355
 355 355 355 203 203 203 41 41 41 41 41 41 143 143 143 143 331 331 331 309
 309 275 275 259 259 259 259 343 343 355 355 203 203 203 203 203 41 41 41 41
 41 41 143 143 143 331 331 331 331 331 233 233 275 275 259 259 343 343 343 343
 203 203 203 203 203 203 41 41 41 41 41 41 8 8 8 331 331 331 331 331
 233 233 233 275 275 343 343 343 343 343 203 203 203 203 203 203 131 131 131 131
 131 2 2 8 253 253 331 331 331 331 233 233 233 11 11 11 343 343 343 343
 203 203 203 203 203 189 131 131 131 131 2 2 2 253 253 253 253 331 331 233
 233 233 233 11 11 11 11 11 144 144 144 205 205 205 205 251 251 251 131 131
 131 131 131 253 253 253 253 66 66 376 316 316 316 11 11 11 11 11 144 144
 144 205 205 205 205 251 251 251 251 131 131 131 131 311 311 311 311 66 66 316
 316 316 316 11 11 11 11 11 144 144 144 141 141 141 141 251 251 251 251 251
 131 131 258 258 258 258 258 258 153 316 316 316 316 316 11 11 11 11 144 144
 144 141 141 141 141 141 221 221 221 221 221 131 258 258 258 258 258 153 153 316
 316 316 316 316 345 345 11 11 38 38 38 38 141 141 141 141 221 221 221 221
 221 10 258 258 258 258 258 153 153 316 316 316 316 316 345 345 345 345 38 38
 38 38 141 141 141 141 221 221 221 284 284 10 10 10 10 258 71 71 71 352
 334 334 334 334 345 345 345 345 38 38 38 38 38 141 141 336 336 221 336 304
 304 10 10 10 10 10 71 71 71 71 334 334 334 334 345 345 345 38 38 38
 38 38 107 107 336 336 336 336 336 304 304 304 304 304 10 10 71 71 71 71
 334 334 334 334 345 387 387 387 38 107 107 107 107 107 107 336 336 336 336 304
 304 304 304 304 304 304 71 71 71 71 334 334 334 273 273 387 387 387 387 107
 107 107 107 107 107 336 336 336 336 304 304 304 304 304 304 304 71 71 136 136
 79 79 79 273 273 387 387 387 387 107 107 107 107 107 107 336 336 336 336 304
 304 304 304 304 304 304 136 136 136 136 79 79 79 273 273 387 387 387 387 107
 107 107 107 107 107 336 336 336 336 304 304 304 304 304 304 304 136 136 136 136
 128 79 79 273 387 387 387 387 387 107 107 107 107 16 16 209 209 209 304 304
 304 304 304 304 304 319 136 136 136 128 128 128 266 387 387 387 387 387 387 123
 107 190 16 16 16 302 302 302 356 356 356 356 304 319 319 287 287 287 287 128
 21 21 266 387 387 387 387 123 123 123 123 190 190 16 302 302 302 302 356 356
 356 356 304 319 287 287 287 287 287 21 21 21 266 59 59 59 123 123 123 123
 123 190 190 190 302 302 302 302 356 356 356 82 82 82 7 287 287 287 287 21
 21 21 266 59 59 59 123 123 123 123 123 190 190 190 302 302 302 302 302 82
 82 82 82 82 7 7 115 115 115 21 21 266 59 59 59 59 59 123 123 123
 123 190 190 232 232 302 302 302 82 82 82 82 82 82 7 7 115 115 115 21
 389 389 59 59 59 59 59 59 123 123 123 190 399 399 399 399 351 351 351 82
 82 82 82 82 392 392 392 115 115 115 389 389 177 59 59 59 59 59 120 120
 120 399 399 399 399 399 351 351 351 82 82 82 48 353 392 392 392 392 389 389
 389 389 177 177 177 327 327 327 120 120 120 120 399 399 399 399 351 351 351 285
 285 353 353 353 353 392 392 389 389 389 389 389 177 177 177 327 327 327 120 120
 120 120 399 399 399 399 174 174 285 285 285 353 353 353 353 392 392 389 389 389
 389 389 177 177 327 327 327 327 391 391 355 355 267 267 267 399 174 174 285 285
 285 353 353 353 353 353 392 389 389 389 389 389 177 327 327 327 327 327 355 355
 355 355 267 267 267 267 174 174 285 285 285 353 272 272 353 353 353 389 389 389
 389 389 259 259 259 259 259 327 355 355 355 355 355 267 267 267 69 69 41 41
 41 143 143 143 143 143 331 331 389 389 244 244 259 259 259 259 259 259 355 355
 355 355 355 355 267 267 69 41 41 41 41 41 143 143 143 331 331 331 331 331
 244 244 259 259 259 259 259 343 343 355 355 355 203 203 203 212 41 41 41 41
 41 41 143 143 143 331 331 331 331 331 233 233 233 275 259 259 343 343 343 343
 398 203 203 203 203 203 131 131 41 131 131 131 143 143 143 331 331 331 331 331
 233 233 233 233 11 11 343 343 343 343 398 398 203 203 203 212 131 131 131 131
 131 131 2 253 253 253 331 331 331 331 233 233 233 11 11 11 11 11 343 398
 398 398 203 205 205 251 251 131 131 131 131 2 2 253 253 253 253 331 331 233
 376 233 233 11 11 11 11 11 144 144 144 144 205 205 205 251 251 251 131 131
 131 131 131 253 253 253 253 376 376 376 376 316 11 11 11 11 11 11 144 144
 144 205 205 205 205 251 251 251 251 131 131 131 131 258 258 258 258 376 376 376
 316 316 316 11 11 11 11 11 144 144 144 144 205 205 205 251 251 251 251 251
 131 131 258 258 258 258 258 153 153 153 316 316 316 11 11 11 11 11 144 144
 144 144 205 205 141 141 251 251 251 251 131 131 258 258 258 258 258 153 153 153
 316 316 316 316 11 11 11 11 38 38 38 38 141 141 141 141 221 221 221 284
 284 284 258 258 258 258 258 153 153 153 316 316 316 316 345 345 345 38 38 38
 38 38 38 141 141 35 221 221 284 284 284 284 258 258 258 258 258 71 153 153
 334 334 334 334 345 345 345 38 38 38 38 38 38 107 35 35 336 336 336 284
 304 304 10 10 10 258 71 71 71 153 334 334 334 334 345 345 345 38 38 38
 38 38 107 107 107 336 336 336 336 304 304 304 304 304 304 304 71 71 71 71
 334 334 334 334 387 387 387 387 107 107 107 107 107 107 107 336 336 336 336 304
 304 304 304 304 304 304 71 71 71 71 334 334 334 334 387 387 387 387 107 107
 107 107 107 107 107 336 336 336 336 304 304 304 304 304 304 304 71 71 136 136
 136 79 79 273 387 387 387 26 387 107 107 107 107 107 107 336 336 336 336 304
 304 304 304 304 304 304 136 136 136 136 79 79 79 387 387 387 387 26 387 107
 107 107 107 107 107 42 336 336 336 304 304 304 304 304 304 319 136 136 136 136
 136 79 79 387 387 387 387 387 387 387 107 107 16 16 16 42 42 42 356 356
 304 304 304 319 319 319 136 136 136 136 136 89 79 387 387 387 387 387 387 123
 178 178 16 16 16 42 42 43 356 356 356 356 319 319 319 319 287 136 136 136
 89 89 89 387 387 387 387 123 123 123 123 190 190 16 16 302 302 43 356 356
 356 356 319 319 319 287 287 287 287 89 89 89 89 59 59 59 123 123 123 123
 190 190 190 190 302 302 302 43 43 356 356 82 82 319 7 7 287 287 287 89
 89 89 89 59 59 59 59 123 123 123 123 190 190 190 302 302 302 43 43 82
 82 82 82 82 7 7 7 287 287 89 89 89 89 59 59 59 59 123 123 123
 123 190 190 190 232 302 302 351 351 82 82 82 82 82 7 34 34 115 115 89
 89 89 59 59 59 59 59 59 123 123 36 36 399 399 399 351 351 351 351 82
 82 82 82 82 7 34 414 115 115 389 389 389 389 59 59 59 59 59 123 36
 36 36 399 399 399 351 351 351 351 351 82 82 82 414 414 414 414 389 389 389
 389 389 177 177 177 59 59 362 391 391 36 36 399 399 399 265 351 351 351 351
 380 380 353 353 414 414 392 389 389 389 389 389 177 177 177 327 327 391 391 391
 391 391 267 267 399 265 265 351 351 285 380 380 353 353 353 414 392 389 389 389
 389 389 177 177 177 327 327 391 391 391 391 391 267 267 267 265 265 174 285 285
 380 380 272 272 272 353 389 389 389 389 389 389 177 211 211 327 327 391 391 391
 391 355 267 267 267 267 69 69 69 285 380 380 272 272 272 272 389 389 389 389
 389 244 244 211 211 211 211 211 391 391 355 355 267 267 267 267 69 69 69 69
 41 272 272 272 272 272 331 389 389 389 244 244 244 211 211 211 211 211 391 355
 355 355 355 267 267 69 69 69 69 69 41 361 143 143 143 331 331 331 331 331
 244 244 244 244 211 211 211 211 211 355 398 398 398 203 212 212 69 69 69 131
 131 131 143 143 143 331 331 331 331 331 233 244 244 244 211 211 211 211 343 398
 398 398 398 212 212 212 212 131 131 131 131 131 131 143 331 331 331 331 331 331
 233 233 233 11 11 11 11 11 343 398 398 398 398 212 212 212 131 131 131 131
 131 131 131 253 253 253 331 331 331 331 233 233 233 11 11 11 11 11 144 144
 398 398 398 205 205 212 251 131 131 131 131 131 131 253 253 253 253 331 331 331
 376 307 307 11 11 11 11 11 144 144 144 144 205 205 205 251 251 251 131 131
 131 131 131 253 253 253 253 376 376 376 376 376 11 11 11 11 11 144 144 144
 144 144 205 205 205 251 251 251 251 131 131 131 131 258 258 258 258 376 376 376
 376 376 316 11 11 11 11 144 144 144 144 144 205 205 205 251 251 251 251 328
 131 131 258 258 258 258 258 153 153 153 153 316 316 11 11 11 11 25 144 144
 144 144 205 205 205 251 251 251 328 328 328 328 258 258 258 258 258 153 153 153
 153 316 316 11 11 11 11 25 144 144 144 144 205 205 205 251 251 221 284 284
 284 284 258 258 258 258 258 153 153 153 153 334 334 334 11 11 25 25 38 38
 38 38 38 397 35 35 35 284 284 284 284 284 258 258 258 258 258 153 153 153
 334 334 334 334 345 345 25 38 38 38 38 38 38 35 35 35 35 35 284 284
 284 284 304 304 258 258 71 71 71 153 334 334 334 334 334 345 38 38 38 38
 38 107 107 107 35 35 35 336 336 304 304 304 304 304 304 71 71 71 71 71
 334 334 334 334 334 387 387 252 252 252 107 107 107 107 35 35 35 336 336 304
 304 304 304 304 304 304 71 71 71 71 334 334 334 4 387 387 387 387 252 252
 107 107 107 107 107 336 336 336 336 304 304 304 304 304 304 304 71 71 71 136
 136 79 79 79 387 387 387 387 387 107 107 107 107 107 107 107 336 336 336 304
 304 304 304 304 304 304 136 136 136 136 136 79 79 387 387 387 387 387 387 107
 107 107 107 107 107 42 42 42 304 304 304 304 304 319 319 319 136 136 136 136
 136 79 79 387 387 387 387 387 387 387 178 178 178 16 42 42 42 42 43 304
 304 319 319 319 319 319 136 136 136 136 89 89 89 387 387 387 387 387 387 178