# vtk DataFile Version 2.0
Data set from ImportExport Version 6.5.141.ec284b7a5
ASCII

DATASET RECTILINEAR_GRID
DIMENSIONS 26 26 26
X_COORDINATES 26 float
-3.000000 3.000000 9.000000 15.000000 21.000000 27.000000 33.000000 39.000000 45.000000 51.000000 57.000000 63.000000 69.000000 75.000000 81.000000 87.000000 93.000000 99.000000 105.000000 111.000000 117.000000 
123.000000 129.000000 135.000000 141.000000 147.000000 
Y_COORDINATES 26 float
-3.000000 3.000000 9.000000 15.000000 21.000000 27.000000 33.000000 39.000000 45.000000 51.000000 57.000000 63.000000 69.000000 75.000000 81.000000 87.000000 93.000000 99.000000 105.000000 111.000000 117.000000 
123.000000 129.000000 135.000000 141.000000 147.000000 
Z_COORDINATES 26 float
-3.000000 3.000000 9.000000 15.000000 21.000000 27.000000 33.000000 39.000000 45.000000 51.000000 57.000000 63.000000 69.000000 75.000000 81.000000 87.000000 93.000000 99.000000 105.000000 111.000000 117.000000 
123.000000 129.000000 135.000000 141.000000 147.000000 
CELL_DATA 15625
SCALARS FeatureIds int 1
LOOKUP_TABLE default
 7 7 7 7 44 44 44 44 88 88 88 88 19 19 87 87 87 67 67 67
 67 7 7 7 7 7 7 7 7 7 44 44 88 88 88 88 19 19 19 87
 87 87 67 45 45 45 17 17 7 7 7 7 7 7 7 7 44 88 88 88
 19 19 19 19 19 87 45 32 45 45 45 17 17 17 7 7 7 7 7 7
 7 19 19 19 19 19 19 19 19 19 45 45 45 45 45 45 17 17 17 7
 7 7 7 7 7 7 19 19 19 19 19 19 19 19 19 45 45 45 45 45
 45 17 17 17 17 65 65 65 7 62 19 19 19 19 19 19 19 19 19 45
 45 45 45 45 45 45 65 65 65 65 65 65 65 62 62 62 19 19 19 19
 19 19 19 19 45 45 45 45 45 45 45 65 65 5 65 65 65 62 62 62
 62 19 19 19 19 19 19 19 19 45 45 45 45 45 45 45 65 5 5 5
 65 62 62 62 62 62 62 19 19 19 19 19 19 19 45 45 45 45 45 45
 45 65 65 5 5 65 62 62 62 62 62 62 62 19 19 19 19 91 91 91
 91 45 45 45 45 45 65 65 65 65 62 62 62 62 62 62 62 62 62 91
 91 91 91 91 91 91 91 45 45 45 45 65 65 65 65 62 62 62 62 62
 62 62 62 62 91 91 91 91 91 91 91 91 91 45 45 45 65 65 65 62
 34 34 62 62 62 62 62 62 91 91 91 91 91 91 91 91 91 91 91 91
 83 83 65 34 34 34 34 34 62 62 62 62 62 91 91 91 91 91 91 91
 91 91 91 91 91 83 83 83 34 34 34 34 34 62 62 62 62 62 91 91
 91 91 91 91 91 91 91 91 83 83 83 83 83 34 34 34 34 34 62 62
 62 62 91 91 91 91 91 91 91 91 91 91 83 83 83 83 83 83 83 73
 73 27 27 27 27 27 27 27 91 91 91 91 91 91 91 91 83 83 83 83
 83 83 83 73 73 73 27 27 27 27 27 27 27 27 91 91 91 91 91 91
 91 83 83 83 83 83 83 83 73 73 27 27 27 27 27 27 27 27 27 91
 91 91 91 91 67 67 83 83 83 83 83 83 83 73 73 27 27 27 27 27
 27 27 27 27 80 23 23 23 67 67 67 67 67 83 83 83 83 83 73 73
 27 27 27 27 27 27 27 27 27 23 23 23 23 67 67 67 67 67 67 67
 31 31 31 31 73 27 27 27 27 27 44 44 44 23 23 23 23 23 67 67
 67 67 67 67 67 31 31 31 31 31 7 27 66 44 44 44 44 44 44 23
 23 23 23 67 67 67 67 67 67 67 31 31 31 31 7 7 7 7 44 44
 44 44 44 44 23 23 23 23 67 67 67 67 67 67 67 67 31 31 31 7
 7 7 7 7 44 44 44 44 44 23 23 23 23 67 67 67 67 67 67 67
 67 31 7 7 7 7 7 7 7 44 44 44 44 88 88 88 88 19 87 87
 87 87 67 67 67 26 17 17 7 7 7 7 7 7 7 44 44 88 88 88
 88 19 19 19 87 87 87 67 67 45 17 17 17 17 17 7 7 7 7 7
 7 44 88 88 88 88 19 19 19 87 87 87 32 45 45 17 17 17 17 17
 17 7 7 7 7 7 19 19 19 19 19 19 19 19 19 45 45 45 45 45
 45 17 17 17 17 17 7 7 7 7 84 19 19 19 19 19 19 19 19 19
 45 45 45 45 45 45 17 17 17 17 65 65 65 7 84 84 19 19 19 19
 19 19 19 19 45 45 45 45 45 45 45 65 65 65 65 65 65 65 62 84
 84 84 19 19 19 19 19 19 19 45 45 45 45 45 45 45 65 65 65 65
 65 65 62 62 62 84 84 19 19 19 19 19 19 19 45 45 45 45 45 45
 45 65 65 5 65 65 65 62 62 62 62 84 19 19 19 19 19 19 19 45
 45 45 45 45 45 45 65 65 65 65 65 62 62 62 62 62 62 62 19 19
 91 91 91 91 91 91 45 45 45 45 45 65 65 65 65 62 62 62 62 62
 62 62 62 91 91 91 91 91 91 91 91 91 91 45 45 45 65 65 65 65
 34 62 62 62 62 62 62 62 91 91 91 91 91 91 91 91 91 91 91 45
 45 65 65 65 62 34 34 34 62 62 62 62 62 91 91 91 91 91 91 91
 91 91 91 91 91 83 83 65 34 34 34 34 34 34 62 62 62 91 91 91
 91 91 91 91 91 91 91 91 91 91 83 83 83 34 34 34 34 34 34 62
 62 62 91 91 91 91 91 91 91 91 91 91 91 83 83 83 83 83 34 34
 34 34 34 27 27 27 27 27 91 91 91 91 91 91 91 91 91 83 83 83
 83 83 83 83 34 27 27 27 27 27 27 27 27 91 91 91 91 91 91 91
 91 83 83 83 83 83 83 83 83 73 27 27 27 27 27 27 27 27 27 91
 91 91 91 91 91 91 83 83 83 83 83 83 83 83 73 27 27 27 27 27
 27 27 27 27 80 80 80 80 91 91 67 83 83 83 83 83 83 83 2 2
 27 27 27 27 27 27 27 27 27 80 80 80 80 67 67 67 67 67 67 83
 83 83 2 2 2 27 27 27 27 27 27 27 27 27 80 80 80 80 67 67
 67 67 67 67 67 31 31 31 2 2 27 27 27 27 27 44 44 44 44 23
 23 80 80 67 67 67 67 67 67 67 31 31 31 31 2 27 27 27 44 44
 44 44 44 44 23 23 23 23 67 67 67 67 67 67 67 31 31 31 31 31
 7 7 7 44 44 44 44 44 44 23 23 23 23 67 67 67 67 67 67 67
 67 31 31 31 7 7 7 7 44 44 44 44 44 44 44 23 23 23 67 67
 67 67 67 67 67 67 31 31 7 7 17 7 7 7 44 44 44 44 88 88
 88 88 19 87 87 87 87 67 26 26 26 17 17 17 17 17 17 7 7 44
 44 44 88 88 88 88 19 19 87 87 87 87 87 26 26 17 17 17 17 17
 17 17 7 7 7 44 44 88 88 88 88 19 19 19 87 87 87 45 26 26
 17 17 17 17 17 17 17 17 7 7 44 44 88 88 19 19 19 19 19 19
 45 45 45 45 45 17 17 17 17 17 17 17 17 7 84 84 84 19 19 19
 19 19 19 19 19 45 45 45 45 45 17 17 17 17 17 65 65 65 84 84
 84 84 19 19 19 19 19 19 19 45 45 45 45 45 45 45 17 17 17 65
 65 65 65 84 84 84 84 84 19 19 19 19 19 19 45 45 45 45 45 45
 45 65 5 5 65 65 65 65 84 84 84 84 84 19 19 19 19 19 19 45
 45 45 45 45 45 65 65 5 5 5 65 65 62 62 84 84 84 84 46 19
 19 19 19 19 45 45 45 45 45 45 65 65 65 5 65 65 65 62 62 62
 29 29 29 91 91 91 91 91 91 91 91 45 45 45 45 65 65 65 65 65
 62 62 62 62 62 29 29 29 91 91 91 91 91 91 91 91 91 91 45 45
 65 65 65 65 65 34 34 62 62 62 62 62 62 91 91 91 91 91 91 91
 91 91 91 91 91 70 65 65 65 65 34 34 34 62 62 62 62 62 91 91
 91 91 91 91 91 91 91 91 91 91 83 83 65 34 34 34 34 34 34 62
 62 62 91 91 91 91 91 91 91 91 91 91 91 91 83 83 83 83 34 34
 34 34 34 34 62 62 27 91 91 91 91 91 91 91 91 91 91 91 83 83
 83 83 83 34 34 34 34 27 27 27 27 27 27 91 91 91 91 91 91 91
 91 91 83 83 83 83 83 83 83 34 27 27 27 27 27 27 27 27 91 91
 91 91 91 91 91 91 83 83 83 83 83 83 83 83 27 27 27 27 27 27
 27 27 27 27 80 80 80 91 91 91 91 83 83 83 83 83 83 83 2 27
 27 27 27 27 27 27 27 27 27 80 80 80 80 80 67 67 67 83 83 83
 83 83 2 2 2 27 27 27 27 27 27 27 27 27 80 80 80 80 80 67
 67 67 67 67 83 83 83 2 2 2 27 27 27 27 27 27 27 27 27 80
 80 80 80 80 67 67 67 67 67 67 31 31 2 2 2 27 27 27 27 27
 27 27 27 27 80 80 80 80 80 67 67 67 67 67 67 31 31 31 2 2
 27 27 27 27 44 44 44 44 44 44 80 80 80 67 67 67 67 67 67 67
 31 31 31 31 2 27 27 27 44 44 44 44 44 44 44 23 80 80 67 67
 67 67 67 67 67 67 31 31 31 2 7 7 7 44 44 44 44 44 44 44
 23 23 67 67 67 67 67 67 67 67 67 31 31 7 7 17 17 7 7 44
 44 44 44 88 88 88 88 60 87 87 87 26 26 26 26 26 26 17 17 17
 17 17 17 7 44 44 44 88 88 88 88 60 60 87 87 87 26 26 26 26
 26 17 17 17 17 17 17 17 7 7 44 44 88 88 88 88 19 19 89 89
 87 26 26 26 26 26 17 17 17 17 17 17 17 17 59 59 59 78 88 78
 19 19 19 89 89 89 45 26 26 26 17 17 17 17 17 17 17 17 17 84
 84 84 78 19 19 19 19 89 89 89 89 45 45 45 26 17 17 17 17 17
 17 17 17 84 84 84 84 46 46 46 46 19 19 89 89 45 45 45 45 45
 17 17 17 17 17 5 65 65 84 84 84 84 46 46 46 46 46 19 19 45
 45 45 45 45 45 45 5 5 5 5 5 65 29 29 84 84 84 46 46 46
 46 46 19 19 45 45 45 45 45 45 65 5 5 5 5 5 65 29 29 84
 84 84 29 46 46 46 46 91 91 91 45 45 45 45 45 72 5 5 5 5
 65 65 29 29 29 29 29 29 46 46 91 91 91 91 91 91 91 45 45 72
 72 72 5 5 5 62 62 62 29 29 29 29 29 29 91 91 91 91 91 91
 91 91 91 45 72 72 72 72 65 65 34 34 62 29 29 29 29 29 91 91
 91 91 91 91 91 91 91 91 91 70 70 72 70 65 65 34 34 34 62 62
 29 29 91 91 91 91 91 91 91 91 91 91 91 91 70 70 70 70 70 34
 34 34 34 34 62 29 29 91 91 91 91 91 91 91 91 91 91 91 91 83
 83 83 83 34 34 34 34 34 27 27 27 27 91 91 91 91 91 91 91 91
 91 91 91 83 83 83 83 83 83 34 27 27 27 27 27 27 27 27 91 91
 91 91 91 91 91 91 91 83 83 83 83 83 83 83 83 27 27 27 27 27
 27 27 27 91 91 91 91 91 91 91 91 91 83 83 83 83 83 83 83 27
 27 27 27 27 27 27 27 27 27 80 80 80 91 91 91 91 83 83 83 83
 83 83 83 2 27 27 27 27 27 27 27 27 27 27 80 80 80 80 80 91
 67 67 83 83 83 83 83 2 2 2 27 27 27 27 27 27 27 27 27 80
 80 80 80 80 67 67 67 67 67 83 83 2 2 2 2 27 27 27 27 27
 27 27 27 27 80 80 80 80 80 67 67 67 67 67 67 67 2 2 2 2
 27 27 27 27 27 27 27 27 27 80 80 80 80 80 67 67 67 67 67 67
 67 31 31 2 2 27 27 27 27 27 27 44 44 44 80 80 80 80 67 67
 67 67 67 67 67 67 31 31 2 2 27 27 27 27 44 44 44 44 44 44
 23 80 80 67 67 67 67 67 67 67 67 31 31 2 2 7 27 27 44 44
 44 44 44 44 44 23 23 67 67 67 67 67 67 26 26 26 26 26 26 7
 17 17 17 7 44 44 44 78 78 60 60 60 60 60 26 26 26 26 26 26
 26 26 26 17 17 17 17 17 17 44 44 78 78 78 60 60 60 60 89 89
 26 26 26 26 26 26 26 17 17 17 17 17 17 17 59 59 78 78 78 78
 78 60 78 89 89 89 26 26 26 26 26 26 17 17 17 17 17 17 17 59
 59 59 78 78 78 78 78 89 89 89 89 26 26 26 26 26 17 17 17 17
 17 17 17 17 84 84 84 78 78 78 78 89 89 89 89 89 26 26 26 26
 26 17 17 17 17 17 17 17 17 84 84 84 46 46 46 46 46 89 89 89
 89 45 45 26 26 26 17 17 17 17 5 65 84 84 84 84 84 46 46 46
 46 46 46 89 89 45 45 45 45 45 26 5 5 5 5 5 65 29 29 84
 84 84 46 46 46 46 46 46 89 45 45 45 45 45 72 72 72 5 5 5
 5 29 29 29 29 29 29 29 46 46 46 46 46 91 91 91 4 4 4 72
 72 72 72 5 5 65 29 29 29 29 29 29 29 46 46 46 91 91 91 91
 91 4 4 72 72 72 72 72 5 5 50 29 29 29 29 29 29 29 29 91
 91 91 91 91 91 91 91 91 72 72 72 72 72 72 72 50 34 29 29 29
 29 29 29 29 91 91 91 91 91 91 91 91 91 91 70 70 70 70 70 70
 34 34 34 29 29 29 29 29 91 91 91 91 91 91 91 91 91 91 91 70
 70 70 70 70 70 34 34 34 34 29 29 29 29 91 91 91 91 91 91 91
 91 91 91 91 70 70 70 70 70 34 34 34 27 27 27 27 27 91 91 91
 91 91 91 91 91 91 91 91 83 83 83 83 53 53 50 27 27 27 27 27
 27 27 75 91 91 91 91 91 91 91 91 91 83 83 83 83 83 83 83 27
 27 27 27 27 27 27 27 27 75 91 91 91 91 91 91 91 91 83 83 83
 83 83 83 2 27 27 27 27 27 27 27 27 27 27 80 80 80 91 91 91
 91 83 83 83 83 83 83 2 2 27 27 27 27 27 27 27 27 27 27 80
 80 80 80 80 91 67 67 83 83 83 83 83 2 2 2 27 27 27 27 27
 27 27 27 27 80 80 80 80 80 67 67 67 67 67 83 83 2 2 2 2
 27 27 27 27 27 27 27 27 27 80 80 80 80 80 67 67 67 67 67 67
 67 2 2 2 2 27 27 27 27 27 27 27 27 27 80 80 80 80 80 67
 67 67 67 67 67 67 31 2 2 27 27 27 27 27 27 27 27 27 27 80
 80 80 80 80 67 67 67 67 67 67 67 31 31 2 27 27 27 27 27 27
 27 27 27 27 80 80 80 80 67 67 67 26 26 26 26 26 26 26 26 27
 27 27 27 27 44 44 44 44 44 78 78 78 26 26 26 26 26 26 26 26
 26 26 26 26 26 17 17 17 59 59 78 78 78 78 78 60 60 60 60 26
 26 26 26 26 26 26 26 26 26 17 17 17 17 59 59 59 78 78 78 78
 60 60 60 60 26 26 26 26 26 26 26 26 26 17 17 17 17 17 59 59
 59 78 78 78 78 78 60 78 89 89 89 26 26 26 26 26 26 17 17 17
 17 17 17 59 59 59 59 78 78 78 78 78 89 89 89 89 89 26 26 26
 26 26 17 17 17 17 17 17 17 59 59 59 78 78 78 78 78 89 89 89
 89 89 26 26 26 26 26 17 17 17 17 17 17 29 29 29 78 78 46 46
 46 78 89 89 89 89 89 26 26 26 26 17 17 17 17 5 29 29 29 29
 29 29 46 46 46 46 46 89 89 89 89 89 26 26 26 26 17 5 5 5
 5 29 29 29 29 29 29 46 46 46 46 46 46 89 89 4 4 4 4 72
 72 72 72 5 5 5 29 29 29 29 29 29 29 46 46 46 46 46 91 91
 4 4 4 4 72 72 72 72 72 5 29 29 29 29 29 29 29 29 46 46
 46 46 91 91 91 4 4 4 4 72 72 72 72 72 72 50 29 29 29 29
 29 29 29 46 46 91 91 91 91 91 91 4 4 4 72 72 72 72 72 72
 50 50 29 29 29 29 29 29 29 91 91 91 91 91 91 91 91 91 43 70
 70 70 70 72 72 50 50 50 29 29 29 29 29 91 91 91 91 91 91 91
 91 91 91 43 70 70 70 70 70 50 50 50 50 29 29 29 29 29 91 91
 91 91 91 91 91 91 91 91 43 43 53 53 53 53 50 50 50 50 50 27
 29 75 75 91 91 91 91 91 91 91 91 91 43 43 43 53 53 53 53 50
 50 27 27 27 27 27 75 75 75 91 91 91 91 91 91 91 91 43 43 43
 43 53 53 52 52 27 27 27 27 27 27 27 75 75 75 91 91 91 91 91
 91 91 83 83 83 83 83 52 52 52 27 27 27 27 27 27 27 75 75 90
 80 80 91 91 91 91 83 83 83 83 83 83 52 52 52 27 27 27 27 27
 27 27 27 90 90 80 80 80 80 91 91 83 83 83 83 83 83 2 52 52
 27 27 27 27 27 27 27 27 90 90 80 80 80 80 80 67 67 67 67 83
 83 2 2 2 2 27 27 27 27 27 27 27 27 90 90 80 80 80 80 67
 67 67 67 67 67 67 2 2 2 27 27 27 27 27 27 27 27 27 90 90
 80 80 80 80 67 67 67 67 67 67 26 26 2 2 27 27 27 27 27 27
 27 27 27 90 90 80 80 80 80 67 67 26 26 26 26 26 26 26 2 27
 27 27 27 27 27 27 27 27 78 78 80 80 80 67 26 26 26 26 26 26
 26 26 26 26 26 27 27 27 27 27 27 44 78 78 78 78 78 78 26 26
 26 26 26 26 26 26 26 26 26 26 17 17 17 59 59 78 78 78 78 78
 78 78 78 78 26 26 26 26 26 26 26 26 26 26 26 17 17 17 59 59
 59 78 78 78 78 78 60 60 60 26 26 26 26 26 26 26 26 26 26 17
 17 17 59 59 59 59 59 78 78 78 78 78 78 89 89 89 26 26 26 26
 26 26 26 26 17 17 17 59 59 59 59 59 78 78 78 78 78 78 89 89
 89 26 26 26 26 26 26 26 17 17 17 17 59 59 59 59 59 78 78 78
 78 78 89 89 89 89 26 26 26 26 26 26 26 17 17 17 17 59 59 59
 59 78 78 78 78 78 78 78 89 89 89 26 26 26 26 26 26 26 17 17
 5 29 29 29 29 29 29 46 46 46 46 78 78 89 89 89 4 26 26 26
 26 26 26 5 5 5 29 29 29 29 29 29 46 46 46 46 46 78 74 74
 4 4 4 4 4 72 72 72 72 5 50 29 29 29 29 29 29 29 46 46
 46 46 46 74 74 4 4 4 4 4 72 72 72 72 72 50 29 29 29 29
 29 29 29 24 46 46 46 21 21 21 4 4 4 4 4 72 72 72 72 72
 50 50 29 29 29 29 29 29 24 24 24 21 21 21 21 21 4 4 4 4
 72 72 72 72 72 50 50 50 29 29 29 29 24 24 24 21 21 21 21 21
 21 21 4 43 43 70 70 70 70 50 50 50 50 50 29 29 29 24 24 21
 21 21 21 21 21 21 21 43 43 43 53 53 53 53 50 50 50 50 50 29
 29 29 24 24 21 21 21 21 21 21 21 21 43 43 43 53 53 53 53 50
 50 50 50 50 50 75 75 75 75 21 21 21 21 21 21 21 21 43 43 43
 53 53 53 53 50 50 50 50 50 50 75 75 75 75 75 21 21 21 21 21
 21 21 43 43 43 43 43 43 43 50 50 27 27 27 27 75 75 75 75 75
 75 21 21 21 21 21 43 43 43 43 43 43 43 52 52 27 27 27 27 27
 8 75 75 75 75 90 90 21 21 21 21 43 43 43 43 43 43 52 52 52
 27 27 27 27 27 8 8 75 90 90 90 90 80 80 21 21 43 43 43 43
 43 43 52 52 52 27 27 27 27 27 8 8 8 90 90 90 90 80 80 80
 67 67 67 43 43 43 2 2 2 2 27 27 27 27 27 27 8 8 90 90
 90 90 80 80 67 67 67 67 67 67 26 2 2 2 27 27 27 27 27 27
 27 8 8 90 90 90 90 80 80 67 67 26 26 26 26 26 26 2 2 27
 27 27 27 27 27 27 27 8 90 90 90 37 37 37 26 26 26 26 26 26
 26 26 26 26 27 27 27 27 27 27 27 27 8 78 78 78 78 37 26 26
 26 26 26 26 26 26 26 26 26 26 27 27 27 27 27 27 78 78 78 78
 78 78 78 26 26 26 26 26 26 26 26 26 26 26 26 17 17 78 78 78
 78 78 78 78 78 78 78 78 78 26 26 26 26 26 26 26 26 26 26 26
 17 17 59 59 59 59 78 78 78 78 78 78 78 78 78 26 26 26 26 26
 26 26 26 26 26 17 17 59 59 59 59 59 78 78 78 78 78 78 78 89
 26 26 26 26 26 26 26 26 26 17 17 17 59 59 59 59 59 78 78 78
 78 78 78 89 89 89 26 26 26 26 26 26 26 26 17 17 17 59 59 59
 59 59 78 78 78 78 78 78 89 89 89 26 26 26 26 26 26 26 26 17
 17 17 59 59 59 59 78 78 78 78 78 78 78 78 89 89 26 26 26 26
 26 26 26 26 17 5 29 29 29 29 24 24 78 78 78 78 78 78 78 74
 40 40 40 40 40 26 26 26 26 5 50 29 29 29 29 29 24 24 24 46
 46 78 74 74 74 74 4 4 40 40 40 72 72 72 5 50 29 29 29 29
 29 24 24 24 24 46 46 74 74 74 74 4 4 4 4 72 72 72 72 72
 50 50 29 29 29 29 24 24 24 24 24 74 74 74 74 74 4 4 4 4
 72 72 72 72 72 50 50 50 29 29 29 24 24 24 24 24 21 21 21 21
 21 4 4 4 4 72 72 72 72 50 50 50 50 50 29 29 24 24 24 24
 21 21 21 21 21 21 21 43 43 43 53 53 53 53 50 50 50 50 50 50
 29 24 24 24 21 21 21 21 21 21 21 21 43 43 43 53 53 53 53 50
 50 50 50 50 50 29 24 24 24 21 21 21 21 21 21 21 21 43 43 43
 53 53 53 53 50 50 50 50 50 50 75 75 75 75 21 21 21 21 21 21
 21 21 43 43 43 53 53 53 53 50 50 50 50 50 50 75 75 75 75 75
 21 21 21 21 21 21 43 43 43 43 43 43 43 43 50 50 50 50 8 8
 75 75 75 75 75 30 30 30 21 21 21 43 43 43 43 43 43 43 43 50
 27 27 27 8 8 8 75 75 75 75 30 30 30 30 21 21 43 43 43 43
 43 43 43 52 52 27 27 27 8 8 8 8 75 75 90 90 30 30 30 21
 21 43 43 43 43 43 43 43 52 52 27 27 27 8 8 8 8 8 90 90
 90 90 30 30 30 38 43 43 43 43 43 43 43 2 2 27 27 27 8 8
 8 8 8 90 90 90 90 90 90 38 38 26 26 43 43 43 26 2 2 27
 27 27 27 8 8 8 8 8 90 90 90 90 90 90 38 38 26 26 26 26
 26 26 26 2 27 27 27 27 8 8 8 8 8 90 90 90 37 37 37 38
 38 26 26 26 26 26 26 26 26 26 27 27 27 8 8 8 8 8 78 78
 37 37 37 37 26 26 26 26 26 26 26 26 26 26 26 27 27 27 8 8
 8 78 78 78 78 78 78 78 78 26 26 26 26 26 26 26 26 26 26 26
 17 17 78 78 78 78 78 78 78 78 78 78 78 78 26 26 26 26 26 26
 26 26 26 26 26 17 17 78 78 78 78 78 78 78 78 78 78 78 78 78
 26 26 26 26 26 26 26 26 26 26 17 59 59 59 59 59 78 78 78 78
 78 78 78 78 89 26 26 26 26 26 26 26 26 26 26 17 17 59 59 59
 59 78 78 78 78 78 78 78 78 89 26 26 26 26 26 26 26 26 26 26
 17 59 59 59 59 59 78 78 78 78 78 78 78 78 89 89 26 26 26 26
 26 26 26 26 26 17 28 59 59 59 78 78 78 78 78 78 78 78 78 89
 40 40 40 40 26 26 26 26 26 26 28 28 28 24 24 24 24 78 78 78
 78 78 78 74 74 40 40 40 40 40 40 26 26 26 26 50 24 24 24 24
 24 24 24 24 24 78 78 74 74 74 74 40 40 40 40 40 40 40 40 50
 50 50 29 24 24 24 24 24 24 24 24 74 74 74 74 74 40 40 40 40
 40 72 72 72 50 50 50 50 29 24 24 24 24 24 24 24 74 74 74 74
 74 74 40 4 40 40 72 72 72 50 50 50 50 50 24 24 24 24 24 24
 24 21 21 74 74 74 74 40 40 40 43 72 53 50 50 50 50 50 50 50
 24 24 24 24 24 21 21 21 21 21 21 21 21 43 43 43 53 53 50 50
 50 50 50 50 50 24 24 24 24 21 21 21 21 21 21 21 21 43 43 43
 43 53 53 50 50 50 50 50 50 50 24 24 24 24 21 21 21 21 21 21
 21 21 43 43 43 43 53 53 50 50 50 50 50 50 50 75 75 75 75 21
 21 21 21 21 21 21 21 43 43 43 43 43 43 43 50 50 50 50 50 50
 75 75 75 75 75 30 21 21 21 21 21 43 43 43 43 43 43 43 43 50
 50 50 50 8 8 75 75 75 75 75 30 30 30 21 21 21 43 43 43 43
 43 43 43 43 50 54 54 54 8 8 8 75 75 75 75 30 30 30 30 21
 21 43 43 43 43 43 43 43 43 50 54 54 54 8 8 8 8 75 75 90
 30 30 30 30 21 21 43 43 43 43 43 43 43 43 52 54 54 54 8 8
 8 8 8 90 90 90 30 30 30 30 38 43 43 43 43 43 43 43 43 54
 54 54 54 8 8 8 8 8 90 90 90 90 30 30 38 38 38 43 43 43
 43 43 43 43 54 54 54 54 8 8 8 8 8 8 90 90 37 37 37 38
 38 38 26 26 26 26 26 26 26 54 54 54 54 8 8 8 8 8 8 90
 37 37 37 37 38 38 26 26 26 26 26 26 26 26 26 54 54 54 8 8
 8 8 8 78 37 37 37 37 37 26 26 26 26 26 26 26 26 26 26 26
 54 54 54 8 8 8 8 78 78 78 37 37 37 37 26 26 26 26 26 26
 26 26 26 26 26 17 20 20 78 78 78 78 78 78 78 78 78 78 78 68
 68 68 26 26 26 26 26 26 26 26 17 78 78 78 78 78 78 78 78 78
 78 78 78 78 78 68 68 26 26 26 26 26 26 26 26 17 28 28 59 78
 78 78 78 78 78 78 78 78 78 78 68 68 26 26 26 26 26 26 26 26
 17 28 28 59 59 59 78 78 78 78 78 78 78 78 78 26 26 26 26 26
 26 26 26 26 26 28 28 28 28 59 78 78 78 78 78 78 78 78 78 78
 40 40 40 26 26 26 26 26 26 26 28 28 28 28 28 78 78 78 78 78
 78 78 78 78 40 40 40 40 40 40 40 26 26 26 26 28 28 28 28 24
 24 24 78 78 78 78 78 78 74 74 40 40 40 40 40 40 40 40 40 40
 28 28 28 24 24 24 24 24 24 24 78 78 74 74 74 74 40 40 40 40
 40 40 40 40 40 50 50 28 24 24 24 24 24 24 24 24 74 74 74 74
 74 40 40 40 40 40 40 40 40 50 50 50 50 24 24 24 24 24 24 24
 24 74 74 74 74 74 74 40 40 40 40 40 72 50 50 50 50 50 50 24
 24 24 24 24 24 24 21 74 74 74 74 74 40 40 40 40 43 43 50 50
 50 50 50 50 24 24 24 24 24 24 21 21 21 21 21 21 21 43 43 43
 43 43 43 50 50 50 50 50 50 50 24 24 18 18 21 21 21 21 21 21
 21 21 43 43 43 43 43 43 50 50 50 50 50 50 50 24 18 18 18 21
 21 21 21 21 21 21 21 43 43 43 43 43 43 50 50 50 50 50 50 50
 75 18 18 18 21 21 21 21 21 21 21 21 43 43 43 43 43 43 43 50
 50 50 50 50 75 75 75 75 75 75 30 21 21 21 21 21 43 43 43 43
 43 43 43 43 50 50 50 50 54 8 75 75 75 75 75 30 30 30 21 21
 21 43 43 43 43 43 43 43 43 50 54 54 54 54 8 8 75 75 75 75
 30 30 30 30 21 21 43 43 43 43 43 43 43 43 50 54 54 54 54 8
 8 8 75 75 75 30 30 30 30 21 21 43 43 43 43 43 43 43 43 54
 54 54 54 54 8 8 8 8 75 75 30 30 30 30 30 38 43 43 43 43
 43 43 43 43 54 54 54 54 54 8 8 8 8 8 90 90 30 30 30 38
 38 38 43 43 43 43 43 43 54 54 54 54 54 54 8 8 8 8 8 90
 37 37 37 38 38 38 38 38 26 26 26 26 26 54 54 54 54 54 54 8
 8 8 8 8 37 37 37 37 37 38 38 38 26 26 26 26 26 26 26 26
 54 54 54 54 8 8 8 8 37 37 37 37 37 37 37 38 26 26 26 26
 26 26 26 26 26 54 54 54 54 8 8 8 78 78 78 37 37 37 37 37
 26 26 26 26 26 26 26 26 26 26 20 20 20 78 78 78 78 78 78 78
 78 78 78 78 68 68 68 68 68 26 26 26 26 26 26 17 78 78 78 78
 78 78 78 78 78 78 78 78 78 68 68 68 68 68 26 26 26 26 26 26
 28 28 28 28 78 78 78 78 78 78 78 78 78 78 78 68 68 68 68 26
 26 26 26 26 26 28 28 28 28 28 78 78 78 78 78 78 78 78 78 78
 68 68 68 26 26 26 26 26 26 26 28 28 28 28 28 78 78 78 78 78
 78 78 78 78 78 40 40 40 40 26 26 26 26 26 26 28 28 28 28 28
 78 78 78 78 78 78 78 78 78 40 40 40 40 40 40 40 26 26 26 26
 28 28 28 28 28 24 24 78 78 78 78 78 78 74 74 40 40 40 40 40
 40 40 40 40 40 28 28 28 28 24 24 24 24 24 24 78 78 74 74 74
 40 40 40 40 40 40 40 40 40 40 12 12 12 28 24 24 24 24 24 24
 24 74 74 74 74 74 40 40 40 40 40 40 40 40 50 12 12 12 12 24
 24 24 24 24 24 24 74 74 74 74 74 40 40 40 40 40 40 40 58 50
 12 12 12 12 24 24 24 24 24 24 24 74 74 74 74 74 74 40 40 40
 40 43 58 58 50 12 12 12 50 24 24 24 24 24 24 21 21 21 21 21
 21 21 40 43 43 43 43 58 58 50 50 50 50 50 50 18 18 18 18 18
 21 21 21 21 21 21 21 43 43 43 43 43 43 50 50 50 50 50 50 50
 18 18 18 18 18 21 21 21 21 21 21 21 43 43 43 43 43 43 50 50
 50 50 50 50 50 18 18 18 18 18 21 21 21 21 21 21 21 43 43 43
 43 43 43 43 50 50 50 50 50 75 75 75 75 75 75 21 21 21 21 21
 21 43 43 43 43 43 43 43 43 50 50 50 54 54 54 75 75 75 75 75
 30 30 30 21 21 21 43 43 43 43 43 43 43 43 50 54 54 54 54 54
 8 75 75 75 75 30 30 30 30 21 21 43 43 43 43 43 43 43 43 50
 54 54 54 54 8 8 8 75 75 75 30 30 30 30 21 21 43 43 43 43
 43 43 43 43 54 54 54 54 54 8 8 8 8 75 75 30 30 30 30 30
 38 43 43 43 43 43 43 43 54 54 54 54 54 54 54 8 8 8 8 75
 90 30 30 30 38 38 38 43 43 43 43 43 43 54 54 54 54 54 54 54
 8 8 8 8 75 37 37 37 38 38 38 38 38 26 26 26 26 26 54 54
 54 54 54 54 54 8 8 8 8 37 37 37 37 37 38 38 38 68 26 26
 26 26 26 26 54 54 54 54 54 54 8 8 8 78 37 37 37 37 37 37
 68 68 68 26 26 26 26 26 26 26 54 54 54 54 54 8 78 78 78 78
 37 37 37 37 68 68 68 68 68 26 26 26 26 26 26 20 20 20 20 20
 78 78 78 78 78 78 78 78 78 68 68 68 68 68 68 26 26 26 26 26
 20 20 20 28 78 78 78 78 78 78 78 78 78 78 68 68 68 68 68 68
 26 26 26 26 26 28 28 28 28 28 78 78 78 78 78 78 78 78 78 68
 68 68 68 68 68 26 26 26 26 26 28 28 28 28 28 28 78 78 78 78
 78 78 78 78 78 68 68 68 68 26 26 26 26 14 14 28 28 28 28 28
 28 78 78 78 78 78 78 78 78 40 40 40 40 40 40 40 26 26 14 14
 28 28 28 28 28 28 78 78 78 78 78 78 78 78 40 40 40 40 40 40
 40 40 40 40 9 28 28 28 28 28 28 28 78 78 78 78 78 78 74 40
 40 40 40 40 40 40 40 40 40 40 28 28 28 28 28 24 24 24 24 78
 78 78 74 74 74 40 40 40 40 40 40 40 40 40 40 12 28 28 28 24
 24 24 24 24 24 69 69 74 74 74 40 40 40 40 40 40 40 40 40 58
 12 12 12 12 24 24 24 24 24 24 69 69 74 74 74 74 40 40 40 40
 40 40 40 58 58 12 12 12 12 24 24 24 24 24 24 69 69 74 74 74
 74 40 40 40 40 40 40 58 58 58 12 12 12 12 24 24 24 18 18 24
 21 21 21 21 21 21 21 40 40 43 43 43 58 58 58 12 12 12 50 50
 18 18 18 18 18 21 21 21 21 21 21 21 43 43 43 43 43 58 58 50
 50 50 50 50 18 18 18 18 18 18 21 21 21 21 21 21 21 43 43 43
 43 43 43 43 50 50 50 50 50 50 18 18 18 18 18 21 21 21 21 21
 21 21 43 43 43 43 43 43 43 50 50 50 50 54 54 75 18 18 15 15
 21 21 21 21 21 21 43 43 43 43 43 43 43 43 50 54 54 54 54 54
 75 15 15 15 15 30 30 21 21 21 21 43 43 43 43 43 43 43 43 50
 54 54 54 54 54 54 15 15 15 15 30 30 30 30 21 21 43 43 43 43
 43 43 43 43 43 54 54 54 54 54 54 15 15 15 75 30 30 30 30 30
 21 43 43 43 43 43 63 63 63 54 54 54 54 54 54 54 8 15 75 75
 30 30 30 30 30 38 51 51 51 51 51 63 63 54 54 54 54 54 54 54
 54 8 8 75 75 30 30 30 30 38 38 38 51 51 51 51 51 63 54 54
 54 54 54 54 54 54 8 8 8 75 37 37 37 38 38 38 38 38 51 51
 71 71 71 54 54 54 54 54 54 54 54 8 8 8 37 37 37 37 37 38
 38 38 68 26 71 71 71 71 54 54 54 20 20 20 20 54 8 78 78 78
 37 37 37 37 68 68 68 68 68 71 71 71 26 26 54 20 20 20 20 20
 20 78 78 78 78 78 78 37 37 68 68 68 68 68 68 26 26 26 26 26
 20 20 20 20 20 20 78 78 78 78 78 78 78 78 68 68 68 68 68 68
 71 71 71 71 64 20 20 20 20 20 61 61 61 78 78 78 78 78 78 68
 68 68 68 68 68 68 26 26 14 14 28 28 28 28 28 61 61 61 61 78
 78 78 78 78 68 68 68 68 68 68 68 26 14 14 14 28 28 28 28 28
 28 61 61 61 78 78 11 11 78 78 68 68 68 68 68 26 26 14 14 14
 28 28 28 28 28 28 61 61 61 78 78 78 78 78 40 40 40 40 40 40
 40 26 14 14 14 28 28 28 28 28 28 28 61 78 78 78 78 78 78 40
 40 40 40 40 40 40 40 40 14 9 28 28 28 28 28 28 28 78 78 78
 78 78 69 40 40 40 40 40 40 40 40 40 40 40 9 28 28 28 28 28
 28 24 24 24 69 69 69 69 74 40 40 40 40 40 40 40 40 40 40 40
 28 28 28 28 28 24 24 24 24 69 69 69 69 74 74 40 40 40 40 40
 40 40 40 40 12 12 12 12 12 24 24 24 24 24 69 69 69 69 74 74
 47 40 40 40 40 40 40 40 58 12 12 12 12 12 24 24 24 24 24 69
 69 69 69 74 47 47 47 40 40 40 40 40 58 58 12 12 12 12 12 24
 18 18 18 18 69 69 69 69 21 21 47 47 47 40 40 43 43 58 58 58
 12 12 12 85 18 18 18 18 18 18 69 21 21 21 21 21 21 43 43 43
 43 43 58 58 12 50 12 50 50 18 18 18 18 18 18 21 21 21 21 21
 21 21 43 43 43 43 43 43 43 50 50 50 50 50 50 18 18 18 18 18
 21 21 21 21 21 21 21 43 43 43 43 43 41 41 41 41 50 54 54 54
 18 18 18 18 15 21 21 21 21 21 21 43 43 43 43 43 43 41 41 41
 54 54 54 48 54 54 15 15 15 15 30 21 21 21 21 21 43 43 43 43
 63 63 63 41 41 54 54 54 48 54 54 15 15 15 15 30 30 30 30 21
 21 43 43 43 43 63 63 63 63 41 54 54 54 54 54 54 15 15 15 15
 30 30 30 30 30 21 51 51 51 51 63 63 63 63 54 54 54 54 54 54
 54 54 15 15 15 30 30 30 30 30 51 51 51 51 51 51 63 63 63 54
 54 54 54 54 54 54 54 54 75 75 30 30 30 49 38 38 51 51 51 51
 51 51 63 54 54 54 54 54 54 54 54 54 54 8 10 10 10 10 10 38
 38 71 71 71 71 71 71 71 54 54 54 20 20 20 20 54 54 54 54 86
 86 86 86 86 38 71 71 71 71 71 71 71 71 71 54 20 20 20 20 20
 20 54 54 78 78 86 37 86 86 68 68 71 71 71 71 71 71 71 71 71
 20 20 20 20 20 20 20 78 78 78 78 78 86 86 68 68 68 68 68 71
 71 71 71 71 71 20 20 20 20 20 20 20 78 78 78 78 78 86 76 68
 68 68 68 71 71 71 71 71 71 64 20 20 20 20 20 61 61 61 61 78
 78 78 78 76 68 68 68 68 68 68 71 71 71 14 14 28 28 28 28 28
 61 61 61 61 61 11 11 11 11 68 68 68 68 68 68 71 71 14 14 14
 28 28 28 28 28 28 61 61 61 61 11 11 11 78 78 68 68 68 68 68
 26 14 14 14 14 28 28 28 28 28 28 61 61 61 61 11 11 11 11 40
 40 40 40 40 40 40 14 14 14 14 28 28 28 28 28 28 28 61 61 78
 78 78 78 40 40 40 40 40 40 40 40 40 9 14 9 28 28 28 28 28
 28 28 78 69 69 69 69 69 69 40 40 40 40 40 40 40 40 16 9 9
 28 28 28 28 28 28 28 24 69 69 69 69 69 69 47 40 40 40 40 40
 40 40 16 9 9 28 28 28 28 28 28 24 24 69 69 69 69 69 69 47
 47 40 40 40 40 40 40 40 13 13 85 85 85 85 85 24 24 24 69 69
 69 69 69 69 47 47 47 47 40 40 40 40 13 13 13 85 85 85 85 85
 24 24 24 69 69 69 69 69 69 47 47 47 47 47 40 40 13 13 13 13
 85 85 85 85 85 18 18 18 69 69 69 69 69 69 47 47 47 47 47 40
 40 13 13 13 13 85 85 85 85 85 18 18 18 18 69 69 69 69 21 47
 47 47 47 47 43 43 43 13 13 85 1 1 85 85 85 18 18 18 18 18
 21 21 21 21 21 21 47 43 43 43 43 43 43 41 41 41 1 1 1 18
 18 18 18 18 18 21 21 21 21 21 21 21 43 43 43 43 43 41 41 41
 41 1 48 48 48 18 18 18 18 18 21 21 21 21 21 21 43 43 43 43
 63 63 41 41 41 54 54 48 48 48 54 15 15 15 15 15 21 21 21 21
 42 43 43 43 63 63 63 63 41 41 54 54 48 48 48 54 15 15 15 15
 15 33 33 30 21 42 42 51 51 63 63 63 63 63 41 54 54 54 48 54
 54 15 15 15 15 15 33 33 49 49 42 51 51 51 51 63 63 63 63 54
 54 54 54 54 54 54 54 15 15 15 33 33 49 49 49 51 51 51 51 51
 51 63 63 63 54 54 54 54 54 54 54 54 54 15 15 10 10 10 49 49
 51 51 51 51 51 51 51 63 63 54 54 54 54 54 54 54 54 54 25 10
 10 10 10 10 10 71 71 71 71 71 71 71 71 71 54 54 20 20 20 20
 20 54 54 25 86 86 86 86 86 86 71 71 71 71 71 71 71 71 71 71
 20 20 20 20 20 20 20 25 25 86 86 86 86 86 86 71 71 71 71 71
 71 71 71 71 71 20 20 20 20 20 20 20 25 25 86 86 86 86 86 68
 68 71 71 71 71 71 71 71 71 71 64 20 20 20 20 20 61 61 61 78
 86 86 86 76 76 76 71 71 71 71 71 71 71 71 64 28 28 20 20 20
 61 61 61 61 61 86 86 76 76 76 76 76 68 71 71 71 71 71 71 64
 28 28 28 28 28 61 61 61 61 61 11 11 11 76 76 76 76 68 68 71
 71 71 14 14 14 28 28 28 28 28 28 61 61 61 61 11 11 11 11 76
 76 76 68 68 71 71 14 14 14 14 28 28 28 28 28 28 61 61 61 61
 11 11 11 11 40 40 40 40 40 40 40 9 9 9 9 28 28 28 28 28
 28 28 61 61 61 69 69 69 69 40 40 40 40 40 40 40 9 9 9 9
 28 28 28 28 28 28 28 61 69 69 69 69 69 69 47 47 40 40 40 40
 16 16 16 9 9 28 28 28 28 28 28 28 69 69 69 69 69 69 69 47
 47 47 40 40 40 16 16 16 9 9 28 28 28 28 28 28 69 69 69 69
 69 69 69 69 47 47 47 47 47 40 16 16 16 13 13 85 85 85 85 85
 28 24 69 69 69 69 69 69 69 47 47 47 47 47 47 40 13 13 13 13
 85 85 85 85 85 85 69 69 69 69 69 69 69 69 47 47 47 47 47 47
 47 13 13 13 13 85 85 85 85 85 85 18 69 69 69 69 69 69 69 47
 47 47 47 47 47 13 13 13 13 13 85 85 85 85 85 18 18 18 69 69
 69 69 69 69 47 47 47 47 47 47 13 13 13 13 13 1 1 1 85 85
 18 18 18 18 69 69 69 69 69 47 47 47 47 42 43 43 13 13 13 1
 1 1 1 1 1 18 18 18 18 18 69 69 21 21 42 42 42 42 42 43
 43 43 41 41 41 41 1 1 48 48 18 18 18 18 33 33 33 21 42 42
 42 42 42 42 63 63 63 41 41 41 41 54 48 48 48 54 15 15 33 33
 33 33 33 42 42 42 42 42 42 63 63 63 63 41 41 54 54 48 48 48
 54 15 15 33 33 33 33 33 42 42 42 42 42 42 63 63 63 63 63 41
 54 36 36 36 36 36 54 15 33 33 33 33 33 49 49 42 42 51 51 51
 63 63 63 63 63 36 36 36 36 36 36 54 15 33 33 33 33 49 49 49
 49 51 51 51 51 51 63 63 63 63 36 36 36 36 36 36 54 54 33 33
 10 10 10 49 49 49 71 71 51 51 51 71 71 71 54 54 54 54 20 54
 54 54 54 25 10 10 10 10 10 10 71 71 71 71 71 71 71 71 71 64
 64 20 20 20 20 20 20 25 25 86 86 86 86 86 86 71 71 71 71 71
 71 71 71 71 64 64 20 20 20 20 20 20 25 25 86 86 86 86 86 86
 71 71 71 71 71 71 71 71 71 64 64 20 20 20 20 20 20 25 25 86
 86 86 86 86 76 76 71 71 71 71 71 71 71 71 64 64 64 64 20 20
 20 61 25 25 25 86 86 86 76 76 76 76 71 71 71 71 71 71 71 64
 64 64 64 20 28 61 61 61 61 61 86 86 76 76 76 76 76 76 71 71
 71 71 71 71 64 28 28 28 28 28 61 61 61 61 61 11 11 76 76 76
 76 76 76 71 71 71 71 71 14 64 28 28 28 28 28 28 61 61 61 61
 11 11 11 76 76 76 76 76 71 71 56 56 9 14 9 28 28 28 28 28
 28 61 61 61 61 11 11 11 76 76 76 76 40 40 56 56 9 9 9 9
 28 28 28 28 28 28 28 61 61 69 69 69 69 69 47 47 47 47 40 40
 16 9 9 9 9 28 28 28 28 28 28 28 69 69 69 69 69 69 69 47
 47 47 47 40 40 16 16 16 9 9 28 28 28 28 28 28 28 69 69 69
 69 69 69 69 47 47 47 47 47 47 16 16 16 9 9 85 85 85 28 28
 28 69 69 69 69 69 69 69 69 47 47 47 47 47 47 16 16 16 16 13
 85 85 85 85 28 28 69 69 69 69 69 69 69 69 47 47 47 47 47 47
 16 16 13 13 13 85 85 85 85 85 85 69 69 69 69 69 69 69 69 47