# vtk DataFile Version 2.0
Data set from IO Version 6.4.197.9a0dee2
ASCII

DATASET RECTILINEAR_GRID
DIMENSIONS 31 31 31
X_COORDINATES 31 float
-5.500000 5.500000 16.500000 27.500000 38.500000 49.500000 60.500000 71.500000 82.500000 93.500000 104.500000 115.500000 126.500000 137.500000 148.500000 159.500000 170.500000 181.500000 192.500000 203.500000 214.500000 
225.500000 236.500000 247.500000 258.500000 269.500000 280.500000 291.500000 302.500000 313.500000 324.500000 
Y_COORDINATES 31 float
-5.500000 5.500000 16.500000 27.500000 38.500000 49.500000 60.500000 71.500000 82.500000 93.500000 104.500000 115.500000 126.500000 137.500000 148.500000 159.500000 170.500000 181.500000 192.500000 203.500000 214.500000 
225.500000 236.500000 247.500000 258.500000 269.500000 280.500000 291.500000 302.500000 313.500000 324.500000 
Z_COORDINATES 31 float
-5.500000 5.500000 16.500000 27.500000 38.500000 49.500000 60.500000 71.500000 82.500000 93.500000 104.500000 115.500000 126.500000 137.500000 148.500000 159.500000 170.500000 181.500000 192.500000 203.500000 214.500000 
225.500000 236.500000 247.500000 258.500000 269.500000 280.500000 291.500000 302.500000 313.500000 324.500000 
CELL_DATA 27000
SCALARS FeatureIds int 1
LOOKUP_TABLE default
 44 241 241 241 241 251 251 272 272 272 272 102 102 102 60 60 60 185 185 185
 231 231 231 231 121 44 44 44 44 44 197 197 197 197 241 251 275 272 272 272
 272 102 102 102 60 60 60 60 131 131 231 121 121 121 121 121 44 44 44 44
 197 197 197 197 280 280 109 109 109 272 272 102 102 102 60 60 60 131 131 131
 339 339 121 121 121 121 220 220 220 197 197 197 197 197 280 280 109 109 109 109
 272 138 138 138 138 131 131 131 131 131 339 339 121 121 121 121 220 220 220 197
 197 197 197 154 154 280 109 109 109 109 138 138 138 138 138 138 131 326 19 19
 339 339 121 121 121 121 220 220 220 197 197 100 154 154 154 154 154 196 196 2
 2 138 138 138 138 138 326 326 19 19 365 365 365 121 121 14 14 14 14 197
 100 100 100 154 154 154 196 196 196 196 196 33 33 33 33 33 19 19 19 350
 350 365 365 121 186 14 14 14 14 14 100 100 100 100 154 154 196 196 196 196
 306 33 33 33 33 33 33 19 350 350 350 350 365 186 186 358 358 14 14 45
 100 100 100 389 389 154 196 196 196 306 306 306 33 33 33 33 33 350 350 350
 350 350 116 116 358 358 358 358 358 45 100 389 389 389 389 389 196 196 196 306
 306 306 306 306 33 33 33 350 350 350 350 116 116 116 268 358 358 55 55 55
 338 338 389 389 389 389 369 369 369 306 306 306 306 306 33 33 48 48 48 48
 48 116 116 116 268 55 55 55 55 55 338 338 338 338 338 338 80 369 217 217
 306 306 126 126 126 126 48 48 48 48 48 48 116 170 55 55 55 55 55 338
 338 338 338 338 338 338 80 80 217 217 58 58 58 126 126 126 48 48 48 48
 48 48 170 170 170 55 55 55 55 338 338 338 338 338 338 338 80 80 80 58
 58 58 58 58 126 126 48 48 48 48 48 170 170 170 170 364 364 364 364 338
 338 338 338 338 338 338 80 80 80 58 58 58 58 58 126 133 219 219 219 219
 219 219 170 170 170 364 364 364 364 338 338 338 338 338 338 43 43 43 43 58
 58 58 58 58 133 133 133 219 219 219 219 219 170 170 364 364 364 364 364 364
 338 338 338 338 191 191 191 43 43 58 58 58 58 133 133 133 133 219 219 219
 219 219 73 73 73 364 364 364 364 364 382 382 338 191 191 191 191 43 43 395
 58 58 133 133 133 133 133 133 187 187 187 73 73 73 73 364 364 364 364 364
 214 214 214 214 191 191 191 191 191 236 236 236 133 133 133 133 133 187 187 187
 187 187 73 73 73 364 364 364 364 382 214 214 214 214 191 191 191 191 236 236
 236 236 133 133 133 133 133 187 187 187 187 187 269 269 269 269 364 364 364 214
 214 214 214 214 214 153 153 153 153 236 236 236 3 3 3 3 90 187 187 187
 187 187 269 269 269 269 269 177 214 214 214 214 214 214 214 153 153 153 153 236
 236 3 3 3 3 3 90 90 90 187 187 187 269 269 269 269 24 177 177 214
 371 371 371 371 321 153 153 153 153 236 236 3 3 3 3 3 90 90 90 187
 187 216 216 216 216 24 24 24 177 177 371 371 371 321 321 321 321 321 321 321
 3 3 3 3 3 3 90 400 400 400 400 400 216 216 216 24 24 24 177 177
 371 371 371 321 321 321 321 321 321 321 243 243 243 243 243 243 400 400 400 400
 400 400 216 216 216 24 24 24 89 89 371 371 321 321 321 321 321 321 321 102
 102 102 243 243 243 243 400 400 400 400 400 400 216 216 216 24 24 89 89 89
 241 241 321 321 321 321 321 321 321 102 102 102 102 102 243 102 400 400 400 400
 400 400 376 376 376 376 89 89 89 89 241 241 241 241 321 321 321 321 321 102
 102 102 102 102 102 102 400 400 400 400 400 400 376 376 376 376 89 89 89 44
 241 241 241 241 241 251 251 251 272 102 102 102 102 102 102 102 185 185 400 400
 231 231 376 376 376 376 44 44 44 44 241 241 241 241 241 251 251 251 272 272
 102 102 102 102 102 102 185 185 185 400 231 231 231 376 376 376 44 44 44 44
 44 241 241 241 251 251 251 272 272 272 272 102 102 102 60 60 131 131 131 231
 231 231 231 231 345 345 345 44 44 44 197 197 197 197 251 251 251 272 272 272
 272 102 102 102 60 60 131 131 131 131 231 231 231 121 345 345 345 44 44 44
 197 197 197 197 280 280 280 109 109 272 272 102 138 131 131 131 131 131 131 131
 339 339 339 121 345 345 220 220 220 197 197 197 197 197 280 280 280 109 109 2
 2 138 138 138 138 131 131 131 131 131 339 339 339 121 121 220 220 220 220 197
 197 197 197 197 280 280 280 2 2 2 2 138 138 138 138 131 131 326 131 131
 339 339 339 186 186 186 220 220 220 197 197 197 197 154 154 154 154 2 2 2
 2 138 138 138 138 138 326 326 326 350 350 339 339 186 186 186 186 14 14 197
 100 100 100 154 154 154 196 196 2 2 2 138 138 138 138 138 326 326 350 350
 350 350 365 186 186 186 186 14 14 45 45 100 100 389 154 369 369 196 196 306
 306 306 33 33 33 33 33 350 350 350 350 350 350 186 186 186 186 14 45 45
 45 100 389 389 389 369 369 369 369 306 306 306 306 33 33 33 33 350 350 350
 350 350 350 268 268 268 72 72 45 45 29 389 389 389 389 369 369 369 369 306
 306 306 306 306 33 33 56 350 350 350 48 48 116 268 268 268 72 55 55 45
 29 29 389 389 389 369 369 369 369 306 306 306 306 306 56 56 56 48 48 48
 48 48 116 268 268 268 72 55 55 29 29 29 29 389 389 369 369 369 369 306
 306 306 306 306 56 56 56 48 48 48 48 48 48 268 268 55 55 55 55 338
 338 338 338 338 338 380 80 80 80 217 58 58 58 126 126 56 56 48 48 48
 48 48 170 170 170 364 364 55 364 338 338 338 338 338 338 380 80 80 80 58
 58 58 58 58 125 218 286 286 286 48 48 48 170 170 170 364 364 364 364 338
 338 338 338 338 338 380 80 80 80 312 312 312 312 312 125 218 286 286 286 286
 219 396 170 170 364 364 364 364 364 364 338 338 338 338 338 380 43 43 43 312
 312 312 312 312 312 133 286 286 286 219 219 396 396 364 364 364 364 364 364 364
 364 338 338 338 191 191 43 43 43 312 312 312 312 312 133 133 133 242 242 219
 219 396 269 269 364 364 364 364 364 364 382 382 214 235 191 191 191 43 43 395
 312 312 312 133 133 133 133 242 242 187 187 187 269 269 269 364 364 364 364 364
 214 214 214 235 235 191 191 191 395 236 236 236 236 133 133 133 133 187 187 187
 187 187 269 269 269 269 364 364 364 364 214 214 214 214 235 153 153 153 236 236
 236 236 236 133 133 133 133 187 187 187 187 187 269 269 269 269 269 364 364 214
 214 214 214 214 153 153 153 153 153 236 236 236 236 3 133 133 133 187 187 187
 187 187 269 269 269 269 269 177 177 214 214 354 354 354 153 153 153 153 153 236
 236 236 236 3 3 3 90 187 187 187 187 187 269 269 269 269 177 177 177 177
 371 371 371 371 153 153 153 153 153 236 236 236 3 3 3 3 6 90 90 187
 187 216 216 216 216 216 177 177 177 177 371 371 371 321 321 321 321 321 153 37
 37 243 243 243 6 6 6 6 400 400 400 400 216 216 216 24 177 177 177 177
 371 371 371 321 321 321 321 321 321 37 243 243 243 243 243 6 6 400 400 400
 400 400 216 216 216 24 89 89 89 177 371 371 321 321 321 321 321 321 321 321
 243 243 243 243 243 6 6 366 366 400 400 400 216 216 216 24 89 89 89 89
 371 371 321 321 321 321 321 321 321 102 102 102 243 243 243 243 400 366 400 400
 400 400 376 376 376 89 89 89 89 89 241 241 241 241 321 321 321 321 321 102
 102 102 102 102 102 102 400 400 400 400 400 231 376 376 376 376 89 89 89 89
 241 241 241 241 241 251 251 251 251 102 102 102 102 102 102 102 185 400 400 400
 231 231 231 376 376 330 330 330 330 44 241 241 241 241 241 251 251 251 272 272
 102 102 102 102 102 102 185 185 185 400 231 231 231 376 376 330 330 44 44 44
 241 241 241 241 251 251 251 251 272 23 23 23 23 102 131 131 131 131 131 131
 231 231 231 345 345 345 345 330 330 330 197 197 197 251 251 251 251 251 272 23
 23 23 23 263 131 131 131 131 131 131 231 231 231 345 345 345 345 330 330 197
 197 197 197 197 280 280 280 280 2 2 23 23 138 131 131 131 131 131 131 131
 339 339 339 345 345 345 345 220 220 197 197 197 197 197 280 280 280 280 2 2
 2 2 138 138 131 131 131 131 131 131 339 339 339 186 186 186 220 220 220 197
 197 197 197 197 280 280 280 2 2 2 2 2 138 138 138 131 131 131 131 131
 339 339 339 186 186 186 186 220 220 197 197 197 197 197 154 154 280 2 2 2
 2 2 138 138 138 131 131 326 131 350 350 339 186 186 186 186 186 186 45 197
 45 197 197 154 154 154 2 2 2 2 2 2 138 138 138 138 131 326 350 350
 350 350 350 186 186 186 186 186 45 45 45 45 100 389 369 369 369 369 369 2
 306 306 138 138 33 33 131 350 350 350 350 350 350 186 186 186 186 45 45 45
 45 45 389 389 389 369 369 369 369 369 306 306 306 306 33 33 350 350 350 350
 350 350 268 268 268 72 72 72 45 45 29 29 389 389 389 369 369 369 369 369
 306 306 306 306 33 56 56 56 350 350 48 48 268 268 268 72 72 72 45 45
 29 29 29 389 389 369 369 369 369 369 306 306 306 306 56 56 56 56 48 48
 48 48 48 268 268 268 72 72 72 29 29 29 29 29 380 369 369 369 369 369
 306 306 306 306 56 56 56 56 48 48 48 48 48 268 268 268 268 55 55 29
 29 29 29 29 380 380 380 80 80 266 266 58 125 125 56 56 56 56 48 48
 48 48 65 65 65 364 364 364 364 29 338 338 338 338 380 380 380 80 80 266
 312 312 125 125 125 218 218 286 286 286 48 396 65 65 65 364 364 364 364 364
 338 338 338 338 380 380 380 80 80 312 312 312 312 125 125 218 286 286 286 286
 396 396 396 65 65 364 364 364 364 364 364 338 338 338 380 380 43 43 43 312
 312 312 312 312 125 218 286 286 286 286 396 396 396 65 364 364 364 364 364 364
 364 338 235 235 235 235 43 43 43 312 312 312 312 312 133 133 242 242 242 286
 396 396 396 269 269 364 364 364 364 364 364 235 235 235 235 235 235 395 395 395
 312 312 312 133 133 133 242 242 242 187 187 269 269 269 269 269 364 364 364 364
 214 214 235 235 235 235 235 395 395 395 236 236 236 133 133 133 242 242 187 187
 187 269 269 269 269 269 364 364 364 364 214 214 235 235 235 235 153 236 236 236
 236 236 236 283 133 133 133 187 187 187 187 269 269 269 269 269 269 364 195 195
 354 354 354 354 235 153 153 153 236 236 236 236 236 283 283 133 133 187 187 187
 187 269 269 269 269 269 269 177 177 177 354 354 354 354 354 153 153 153 153 236
 236 236 236 283 283 6 6 187 187 187 187 269 269 269 269 269 177 177 177 177
 354 354 354 354 354 153 153 153 153 37 37 37 236 6 6 6 6 6 187 187
 187 269 269 216 216 269 177 177 177 177 371 371 371 321 321 321 321 153 153 37
 37 37 243 6 6 6 6 6 6 400 400 216 216 216 216 216 177 177 177 177
 371 371 371 321 321 321 321 321 321 37 37 243 243 243 6 6 6 6 400 400
 400 400 216 216 216 216 89 89 177 177 371 371 321 321 321 321 321 321 321 37
 37 243 243 243 6 6 6 366 400 400 400 400 216 216 216 89 89 89 89 177
 168 168 168 321 321 321 321 321 321 8 8 243 243 243 243 6 6 366 400 400
 400 400 400 384 376 89 89 89 89 89 168 168 241 241 321 321 321 321 8 8
 102 102 102 102 102 6 6 400 400 400 400 400 231 376 376 330 330 330 330 330
 241 241 241 241 251 251 251 251 251 8 102 102 102 102 102 102 185 400 400 400
 231 231 231 376 376 330 330 330 330 330 241 241 241 241 251 251 251 251 251 23
 23 102 102 102 102 102 185 81 81 231 231 231 231 231 330 330 330 330 330 330
 197 241 241 251 251 251 251 251 23 23 23 23 23 23 263 131 131 131 131 81
 81 81 231 345 345 345 345 330 330 330 197 197 197 251 251 251 251 251 23 23
 23 23 23 263 263 131 131 131 131 131 131 81 345 345 345 345 345 330 330 330
 197 197 197 197 280 280 280 148 2 23 23 23 263 263 263 131 131 131 131 131
 131 339 339 345 345 345 345 220 220 197 197 197 197 197 280 280 148 148 2 2
 2 2 263 263 263 131 131 131 131 131 131 339 331 331 186 186 186 220 220 197
 197 197 197 197 280 280 148 2 2 2 2 2 138 263 263 131 131 131 131 131
 131 339 186 186 186 186 186 186 220 197 197 197 197 197 148 148 148 2 2 2
 2 2 138 138 138 131 131 131 131 131 131 186 186 186 186 186 186 186 45 45
 45 45 197 197 154 148 148 2 2 2 2 2 138 138 138 138 131 131 131 350
 350 350 186 186 186 186 186 186 45 45 45 45 45 146 369 369 369 369 369 2
 2 2 138 138 33 33 131 350 350 350 350 350 186 186 186 186 186 45 45 45
 45 45 389 389 369 369 369 369 369 369 306 306 306 306 33 56 56 350 350 350
 350 350 268 268 268 72 72 72 45 45 29 29 29 29 369 369 369 369 369 369
 306 306 306 306 56 56 56 56 350 350 48 48 268 268 268 72 72 72 45 45
 29 29 29 29 369 369 369 369 369 369 306 306 306 306 56 56 56 56 375 375
 48 48 268 268 268 268 268 72 72 29 29 29 29 29 380 380 369 369 369 266
 266 306 306 306 56 56 56 56 375 375 375 375 399 399 268 268 268 72 29 29
 29 29 29 29 380 380 380 266 266 266 266 266 125 125 125 218 56 390 375 375
 375 375 65 65 65 268 364 364 364 29 29 29 29 380 380 380 380 380 266 266
 266 312 125 125 125 218 218 286 286 286 375 396 65 65 65 364 364 364 364 364
 338 338 338 380 380 380 380 380 266 266 312 312 312 125 125 218 286 286 286 286
 396 396 396 65 65 364 364 364 364 364 364 338 340 340 380 380 380 380 266 312
 312 312 312 312 125 242 242 286 286 286 396 396 396 65 364 364 364 364 364 364
 364 235 235 235 235 235 380 395 395 312 312 312 312 312 283 242 242 242 242 286
 396 396 396 269 269 364 364 364 364 364 364 235 235 235 235 235 235 395 395 395
 312 312 312 283 283 242 242 242 242 242 187 269 269 269 269 269 364 364 364 364
 354 235 235 235 235 235 235 395 395 395 236 236 283 283 283 283 242 242 242 187
 187 269 269 269 269 269 269 364 195 195 354 354 235 235 235 235 235 395 395 236
 236 236 236 283 283 283 242 242 187 187 187 269 269 269 269 269 269 195 195 195
 354 354 354 354 235 153 153 26 236 236 236 236 236 283 283 283 283 187 187 187
 187 269 269 269 269 269 269 195 195 354 354 354 354 354 235 153 153 153 26 236
 236 236 283 283 283 283 283 187 187 187 187 269 269 269 269 269 195 195 177 354
 354 354 354 354 354 153 153 153 26 37 37 134 134 6 6 6 6 6 6 187
 187 269 269 269 269 269 177 177 177 177 354 354 354 354 321 321 321 153 37 37
 37 37 134 6 6 6 6 6 6 400 400 216 216 216 216 216 177 177 177 177
 371 371 371 321 321 321 321 321 37 37 37 37 243 6 6 6 6 6 400 400
 400 384 384 216 216 216 89 177 177 177 168 168 321 321 321 321 321 321 321 8
 37 243 243 6 6 6 6 6 400 400 384 384 384 384 384 89 89 89 89 49
 168 168 168 321 321 321 321 321 8 8 8 8 243 243 6 6 6 6 400 400
 384 384 384 384 384 89 89 89 89 49 168 168 168 321 321 251 251 251 8 8
 8 8 102 102 6 6 6 400 400 400 384 384 384 384 384 330 330 330 330 49
 168 168 241 241 251 251 251 251 8 8 8 8 102 102 4 4 81 81 81 81
 81 231 384 384 330 330 330 330 330 330 168 241 241 251 251 251 251 251 8 8
 23 23 102 102 102 102 81 81 81 81 81 231 231 345 345 330 330 330 330 330
 49 46 46 46 251 251 251 251 23 23 23 23 23 23 263 131 131 81 81 81
 81 81 81 345 345 345 345 330 330 330 197 197 46 46 46 251 251 251 23 23
 23 23 23 263 263 131 131 131 131 131 81 81 345 345 345 345 345 330 330 330
 197 197 46 46 46 251 148 148 148 23 23 23 263 263 263 263 131 131 131 131
 131 131 331 331 345 345 345 220 330 197 197 197 197 46 46 148 148 148 148 2
 2 2 263 263 263 263 131 131 131 131 131 331 331 331 331 186 186 186 220 197
 197 197 197 197 148 148 148 148 2 2 2 2 263 263 263 263 131 131 131 131
 131 131 331 331 186 186 186 186 186 197 197 197 197 197 148 148 148 148 2 2
 2 2 263 263 263 131 131 131 131 131 131 131 186 186 186 186 186 186 45 45
 45 45 379 146 146 148 148 148 2 2 2 2 180 180 180 131 131 131 131 131
 131 350 186 186 186 186 186 186 45 45 45 45 45 146 146 146 369 369 369 2
 2 2 180 180 180 180 131 131 350 350 350 350 186 186 186 186 186 45 45 45
 45 45 146 146 146 369 369 369 369 369 183 183 183 180 180 180 56 375 350 350
 350 268 268 268 268 268 72 72 45 45 29 29 29 146 146 369 369 369 369 369
 183 183 183 183 180 56 56 375 375 375 375 399 399 399 268 268 268 268 352 352
 29 29 29 29 146 369 369 369 369 369 183 183 183 183 56 56 56 56 375 375
 375 375 399 399 399 268 268 268 29 29 29 29 29 29 380 369 369 369 266 266
 266 266 306 56 56 56 56 56 375 375 375 375 399 399 399 399 399 199 199 29
 29 29 29 29 380 380 380 266 266 266 266 266 125 125 56 56 390 390 375 375
 375 375 65 65 399 399 199 199 199 29 29 29 29 380 380 380 380 266 266 266
 266 266 125 125 125 218 390 390 390 375 375 375 65 65 65 399 199 199 199 199
 166 340 340 340 380 380 380 266 266 266 266 312 312 125 125 218 390 390 286 286
 396 396 396 65 65 364 364 364 364 364 166 340 340 340 340 340 380 266 266 266
 312 312 312 312 125 218 390 286 286 286 396 396 396 65 65 364 364 364 364 364
 166 340 340 340 340 235 356 356 395 356 312 312 312 312 283 242 242 242 242 286
 396 396 396 269 269 364 364 364 364 364 381 235 235 235 235 235 235 395 395 395
 356 312 283 283 283 283 242 242 242 242 61 269 269 269 269 269 364 364 364 166
 381 381 235 235 235 235 235 395 395 395 236 236 283 283 283 283 242 242 242 242
 61 61 269 269 269 269 269 195 195 195 381 381 381 235 235 235 26 26 395 236
 236 236 283 283 283 283 283 242 242 61 61 61 269 269 269 269 195 195 195 195
 354 354 354 354 235 26 26 26 26 236 236 236 283 283 283 283 283 242 242 187
 61 61 269 269 269 269 195 195 195 195 354 354 354 354 26 26 26 26 26 236
 236 236 283 283 283 283 283 242 292 292 61 269 269 269 269 269 195 195 195 195
 354 354 354 354 26 26 26 26 26 26 134 134 134 283 6 6 6 6 6 292
 292 269 269 269 269 269 195 195 195 195 354 354 354 354 98 26 26 26 26 37
 134 134 134 6 6 6 6 6 6 292 292 384 269 269 269 76 195 195 195 177
 49 49 49 321 98 98 98 321 26 37 134 134 134 6 6 6 6 6 6 292
 384 384 384 384 384 333 333 333 333 49 49 49 49 321 98 98 98 321 8 8
 134 134 134 6 6 6 6 6 226 226 384 384 384 384 384 333 333 333 333 49
 49 49 49 49 98 98 98 8 8 8 8 8 4 4 6 6 6 6 226 226
 384 384 384 384 384 333 333 333 333 49 49 168 49 49 251 251 251 8 8 8
 8 8 4 4 4 6 6 81 81 81 384 384 384 384 384 330 330 330 49 49
 49 49 49 251 251 251 251 251 8 8 8 8 4 4 4 4 81 81 81 81
 81 384 384 384 330 330 330 330 330 49 49 49 49 251 251 251 251 251 8 8
 23 23 4 4 4 4 81 81 81 81 81 81 384 345 345 345 330 330 330 330
 49 49 46 46 46 251 251 251 23 23 23 23 130 130 130 131 81 81 81 81
 81 81 104 104 345 345 345 330 330 330 142 142 46 46 46 251 251 103 103 23
 23 23 130 130 263 131 131 131 131 81 81 81 104 104 345 345 345 238 238 238
 142 142 46 46 46 46 148 148 148 2 23 23 263 263 263 263 131 131 131 131
 131 331 331 331 331 345 345 238 238 238 379 379 46 46 46 148 148 148 148 2
 2 2 263 263 263 263 131 131 131 131 131 331 331 331 331 331 186 186 186 308
 379 379 379 379 148 148 148 148 148 2 2 2 263 263 263 263 131 131 131 131
 131 331 331 331 331 186 186 186 186 308 379 379 379 379 148 148 148 148 148 2
 2 2 263 263 263 263 131 131 131 131 131 331 331 331 186 186 186 186 186 45
 379 379 379 146 146 148 148 148 148 2 2 2 180 180 180 164 131 131 131 131
 131 350 186 186 186 186 186 186 45 45 45 45 379 146 146 146 148 148 148 2
 2 2 180 180 180 180 293 131 293 293 350 350 247 247 247 247 247 45 45 45
 352 352 352 146 146 146 369 369 369 369 183 183 183 180 180 123 123 375 375 375
 375 375 399 399 399 399 247 352 352 352 352 352 352 146 146 146 369 369 369 369
 183 183 183 183 123 123 123 375 375 375 375 375 399 399 399 399 399 352 352 352
 352 29 29 29 146 369 369 369 369 266 183 183 183 123 123 123 123 375 375 375
 375 375 399 399 399 399 399 352 352 352 29 29 29 29 158 369 369 266 266 266
 266 266 266 123 123 123 123 375 375 375 375 375 399 399 399 399 399 199 199 352
 29 29 29 29 380 380 158 266 266 266 266 266 266 123 123 123 390 390 390 375
 375 375 399 399 399 399 199 199 199 199 304 304 340 340 380 380 266 266 266 266
 266 266 213 213 123 390 390 390 390 375 375 375 399 399 399 399 199 199 199 199
 166 340 340 340 340 340 266 266 266 266 266 266 312 213 213 390 390 390 390 390
 396 396 396 65 65 399 199 199 199 166 166 340 340 340 340 340 266 266 266 266
 266 312 312 312 213 390 390 390 390 390 396 396 396 65 65 364 364 166 166 166
 166 340 340 340 340 340 356 356 356 356 356 312 312 283 283 283 242 242 242 242
 396 396 396 269 269 364 364 166 166 166 166 340 235 235 235 235 356 356 356 356
 356 356 283 283 283 283 242 242 242 242 61 61 269 269 269 269 364 195 166 166
 381 381 381 235 235 235 356 356 356 356 356 283 283 283 283 283 283 242 242 61
 61 61 61 269 269 269 195 195 195 195 381 381 381 235 235 235 26 26 26 356
 236 283 283 283 283 283 283 242 61 61 61 61 61 269 269 269 195 195 195 195
 381 381 381 235 235 26 26 26 26 236 236 283 283 283 283 283 283 283 61 61
 61 61 61 269 269 269 195 195 195 195 195 354 354 182 26 26 26 26 26 26
 236 134 283 283 283 283 283 283 292 292 292 61 269 269 269 195 195 195 195 195
 354 354 354 354 26 26 26 26 26 26 134 134 134 134 283 283 6 6 292 292
 292 292 269 269 269 195 195 195 195 195 49 354 354 98 98 26 26 26 26 134
 134 134 134 134 6 6 6 6 292 292 292 292 292 269 76 76 195 195 195 386
 49 49 49 98 98 98 98 26 26 134 134 134 134 134 6 6 6 6 226 292
 292 384 384 384 76 76 333 333 333 49 49 49 49 49 98 98 98 348 348 348
 134 134 134 134 6 6 6 226 226 226 384 384 384 384 384 333 333 333 333 49
 49 49 49 49 98 98 98 348 8 8 8 8 4 4 4 6 6 226 226 226
 384 384 384 384 384 333 333 333 333 49 49 49 49 49 251 251 251 8 8 8
 8 8 4 4 4 4 226 226 226 226 384 384 384 384 384 212 330 330 49 49
 49 49 49 49 251 251 251 8 8 8 8 348 4 4 4 4 81 81 81 81
 81 81 384 384 384 330 330 330 49 49 49 49 49 46 251 251 251 251 8 8
 348 348 4 4 4 4 81 81 81 81 81 81 384 384 345 345 330 330 330 49
 142 142 142 46 46 251 251 103 103 103 103 130 130 130 130 130 81 81 81 81
 81 81 104 104 104 238 238 238 238 49 142 142 142 46 46 46 103 103 103 103
 103 130 130 130 130 130 131 81 81 81 81 81 104 104 104 238 238 238 238 142
 142 142 142 46 46 46 103 103 103 103 103 176 130 130 130 130 131 131 131 131
 81 331 331 331 331 289 289 238 238 142 379 379 379 46 46 148 148 148 103 103
 176 176 176 263 263 263 131 131 131 131 131 331 331 331 331 289 289 238 238 308
 379 379 379 379 379 148 148 148 148 148 176 176 176 263 263 164 131 131 131 131
 131 331 331 331 331 186 186 186 308 308 379 379 379 379 379 148 148 148 148 148
 2 2 176 263 164 164 164 131 131 131 131 331 331 331 247 247 247 186 308 308
 379 379 379 146 146 148 148 148 148 148 2 2 233 180 164 164 293 293 293 293
 293 247 247 247 247 247 247 247 308 308 352 379 379 146 146 146 148 148 148 148
 2 233 233 233 233 164 293 293 293 293 293 159 247 247 247 247 247 247 352 352
 352 352 352 146 146 146 91 91 91 369 183 183 233 233 233 123 293 293 293 293
 375 159 399 399 399 247 247 352 352 352 352 352 352 146 146 146 91 91 91 369
 183 183 183 123 123 123 123 123 375 375 375 375 399 399 399 399 399 352 352 352
 352 352 352 146 146 158 91 91 91 266 183 183 183 123 123 123 123 123 375 375
 375 375 399 399 399 399 399 352 352 352 352 352 29 158 158 158 158 158 266 266
 266 266 123 123 123 123 123 123 375 375 375 375 399 399 399 399 399 199 352 352
 304 304 304 304 158 158 158 266 266 266 266 266 213 213 123 123 123 390 390 375
 375 375 399 399 399 399 199 199 199 199 304 304 304 340 158 158 158 266 266 266
 266 266 213 213 213 123 390 390 390 390 375 375 399 399 399 199 199 199 199 166
 166 304 340 340 340 340 266 266 266 266 266 266 213 213 213 123 390 390 390 390
 299 299 299 299 399 199 199 199 166 166 166 166 340 340 340 340 356 356 356 356
 356 356 213 213 213 123 390 390 390 390 299 299 299 299 248 248 199 166 166 166
 166 166 340 340 340 340 356 356 356 356 356 356 356 283 283 283 242 334 334 334
 299 299 299 299 248 248 166 166 166 166 166 166 235 235 235 235 356 356 356 356
 356 356 283 283 283 283 283 334 334 334 61 61 61 269 269 269 166 166 166 166
 381 381 381 235 235 235 356 356 356 356 356 356 283 283 283 283 283 334 334 334
 61 61 61 269 269 269 195 195 195 195 381 381 381 235 235 182 26 356 356 356
 356 283 283 283 283 283 283 334 334 61 61 61 61 269 269 269 195 195 195 195
 195 381 381 182 182 182 26 26 26 26 283 283 283 283 283 283 283 283 292 292
 292 61 61 269 269 195 195 195 195 195 195 354 381 182 182 182 26 26 26 26
 283 283 283 283 283 283 283 292 292 292 292 292 292 269 269 195 195 195 195 195
 386 354 354 182 182 182 26 26 26 26 134 134 134 283 283 283 283 292 292 292
 292 292 292 269 76 76 76 195 195 386 386 386 386 182 182 182 26 26 26 134
 134 134 134 134 6 6 6 292 292 292 292 292 292 292 76 76 76 195 386 386
 386 49 49 98 98 98 98 26 26 134 134 134 134 134 6 6 6 226 226 292
 292 292 200 200 76 76 76 333 386 386 49 49 49 49 98 98 98 348 348 348
 348 134 134 4 6 6 226 226 226 226 226 384 384 384 76 212 333 333 333 49
 49 49 49 49 98 98 98 348 348 348 348 348 4 4 4 4 226 226 226 226
 226 384 384 384 212 212 212 333 49 49 49 49 49 49 98 251 348 348 348 348
 348 348 4 4 4 4 226 226 226 226 226 384 384 384 212 212 212 212 49 49
 49 49 49 49 251 251 251 348 348 348 348 348 4 4 4 4 81 81 81 81
 81 81 384 384 212 212 212 212 49 49 49 49 49 46 251 251 251 348 348 348
 348 348 130 130 130 130 81 81 81 81 81 81 81 81 212 212 212 238 49 49
 142 142 142 142 46 251 103 103 103 103 103 130 130 130 130 130 346 346 81 81
 81 81 104 104 104 238 238 238 238 142 142 142 142 142 46 46 103 103 103 103
 103 130 130 130 130 130 346 346 346 81 81 104 104 104 104 238 238 238 238 142
 142 142 142 142 46 13 103 103 103 103 103 176 130 130 130 130 346 346 346 131
 281 104 104 104 104 289 289 238 238 142 379 379 379 379 13 13 148 103 103 103
 176 176 176 130 130 164 164 164 131 131 281 281 331 331 289 289 289 238 238 142
 379 379 379 379 379 148 148 148 103 118 176 176 176 164 164 164 164 164 164 131
 281 281 331 331 331 71 71 71 308 308 379 379 379 379 379 148 148 148 148 118
 118 118 164 164 164 164 164 164 164 131 281 281 331 247 247 247 71 71 308 308
 379 379 379 379 146 148 148 148 148 118 118 118 233 233 164 164 164 293 293 293
 293 247 247 247 247 247 247 71 308 308 352 379 379 146 146 146 148 148 148 118
 118 233 233 233 164 164 293 293 293 293 159 159 159 247 247 247 247 247 352 352
 352 352 352 146 146 237 91 91 91 66 183 183 233 233 123 123 293 293 293 293
 159 159 159 159 247 247 247 352 352 352 352 352 352 146 146 237 91 91 91 66
 183 183 183 123 123 123 123 123 375 375 375 159 159 399 399 399 247 352 352 352
 352 352 352 352 158 158 158 91 91 266 183 183 123 123 123 123 123 123 375 375
 375 375 399 399 399 399 399 352 352 352 352 352 352 158 158 158 158 158 266 266
 266 266 123 123 123 123 123 123 375 375 375 375 399 399 399 399 399 352 352 352
 304 304 304 304 158 158 158 158 266 266 266 213 213 213 123 123 123 123 390 375
 375 375 399 399 399 399 199 199 199 352 304 304 304 340 158 158 158 158 266 266
 266 213 213 213 213 123 123 390 390 299 299 299 299 399 399 399 199 199 199 166
 166 304 304 340 340 158 158 266 266 266 266 124 213 213 213 123 305 305 305 299
 299 299 299 299 248 248 199 199 166 166 166 166 340 340 340 356 356 356 356 356
 356 356 213 213 213 305 305 305 305 299 299 299 299 299 248 248 248 166 166 166
 166 166 340 340 340 356 356 356 356 356 356 356 356 283 213 305 305 334 334 334
 299 299 299 299 248 248 248 166 166 166 166 166 235 235 235 356 356 356 356 356
 356 356 356 283 283 283 334 334 334 334 334 299 299 299 311 248 248 166 166 166
 381 381 381 30 30 356 356 356 356 356 356 356 283 283 283 283 334 334 334 334
 334 61 311 311 311 311 195 195 195 195 195 381 381 182 182 182 356 356 356 356
 356 283 283 283 283 283 334 334 334 334 334 61 311 311 311 311 195 195 195 195
 195 381 381 182 182 182 182 26 26 356 356 283 283 283 283 283 283 334 292 292
 292 292 311 311 311 195 195 195 195 195 195 195 182 182 182 182 182 26 26 26
 356 283 283 283 283 283 283 198 292 292 292 292 292 311 76 76 195 195 195 195
 386 386 182 182 182 182 182 26 26 26 134 134 134 283 283 283 198 198 292 292
 292 292 292 200 76 76 76 195 386 386 386 386 386 182 182 182 182 26 26 134
 134 134 134 134 6 362 362 198 292 292 292 292 200 200 76 76 76 76 386 386
 386 386 49 98 98 98 98 348 348 348 134 134 134 134 6 6 226 226 226 292
 292 200 200 200 76 76 76 76 386 386 49 49 49 49 98 98 98 348 348 348
 348 348 348 4 6 226 226 226 226 226 226 200 200 200 212 212 212 212 212 49
 49 49 49 49 98 98 348 348 348 348 348 348 348 4 4 226 226 226 226 226
 226 384 384 200 212 212 212 212 212 49 49 49 49 49 49 348 348 348 348 348
 348 348 348 4 4 4 226 226 226 226 226 384 384 212 212 212 212 212 212 49
 49 49 49 49 49 251 348 348 348 348 348 348 348 4 4 194 194 81 81 81
 81 81 384 212 212 212 212 212 212 49 49 320 320 320 251 251 348 348 348 348
 348 348 130 130 130 130 106 81 81 81 81 81 81 212 212 212 212 212 212 49
 320 320 320 320 320 13 13 103 103 103 103 130 130 130 130 106 346 346 346 344
 344 344 104 104 104 238 238 238 238 320 142 142 142 142 13 13 13 103 103 103
 103 103 130 130 130 346 346 346 346 346 344 104 104 104 104 238 238 238 238 142
 142 142 142 142 13 13 13 103 103 103 103 176 130 130 130 164 346 346 346 346
 281 281 104 104 104 238 238 238 238 142 379 379 379 379 13 13 13 103 103 103
 103 176 176 164 164 164 164 164 164 281 281 281 281 331 289 71 71 71 71 71
 379 379 379 379 13 13 13 103 118 118 118 176 176 164 164 164 164 164 164 164
 281 281 281 331 71 71 71 71 71 308 379 379 379 379 13 13 13 118 118 118
 118 118 164 164 164 164 164 164 164 164 281 281 281 247 247 71 71 71 71 308
 379 379 379 379 379 13 148 118 118 118 118 118 164 164 164 164 164 164 293 293
 281 281 247 247 247 247 71 71 71 308 352 379 379 379 237 237 237 118 118 118
 118 118 164 164 164 164 164 293 293 293 159 159 159 247 247 247 247 71 352 352
 352 352 352 237 237 237 237 237 66 66 66 66 179 179 164 123 123 293 293 293
 159 159 159 159 247 247 247 352 352 352 352 352 352 237 237 237 237 237 66 66
 66 183 179 179 123 123 123 123 375 192 192 159 159 159 399 247 247 352 352 352
 352 352 352 237 237 237 237 237 66 66 66 66 179 179 123 123 123 265 192 192
 192 159 159 140 399 399 399 352 352 352 352 352 352 158 158 158 158 158 266 266
 266 124 123 123 123 123 123 265 192 192 192 192 140 140 140 399 399 352 352 352