# vtk DataFile Version 2.0
Data set from IO Version 6.4.197.9a0dee2
ASCII

DATASET RECTILINEAR_GRID
DIMENSIONS 31 31 31
X_COORDINATES 31 float
-5.500000 5.500000 16.500000 27.500000 38.500000 49.500000 60.500000 71.500000 82.500000 93.500000 104.500000 115.500000 126.500000 137.500000 148.500000 159.500000 170.500000 181.500000 192.500000 203.500000 214.500000 
225.500000 236.500000 247.500000 258.500000 269.500000 280.500000 291.500000 302.500000 313.500000 324.500000 
Y_COORDINATES 31 float
-5.500000 5.500000 16.500000 27.500000 38.500000 49.500000 60.500000 71.500000 82.500000 93.500000 104.500000 115.500000 126.500000 137.500000 148.500000 159.500000 170.500000 181.500000 192.500000 203.500000 214.500000 
225.500000 236.500000 247.500000 258.500000 269.500000 280.500000 291.500000 302.500000 313.500000 324.500000 
Z_COORDINATES 31 float
-5.500000 5.500000 16.500000 27.500000 38.500000 49.500000 60.500000 71.500000 82.500000 93.500000 104.500000 115.500000 126.500000 137.500000 148.500000 159.500000 170.500000 181.500000 192.500000 203.500000 214.500000 
225.500000 236.500000 247.500000 258.500000 269.500000 280.500000 291.500000 302.500000 313.500000 324.500000 
CELL_DATA 27000
SCALARS FeatureIds int 1
LOOKUP_TABLE default
 183 183 183 82 82 82 82 82 317 317 243 243 243 237 237 237 237 394 394 394
 394 394 394 394 120 120 120 120 183 183 183 211 211 82 82 82 82 311 311 311
 243 243 243 237 237 237 237 394 394 394 394 394 394 394 120 120 120 120 120 183
 183 211 82 82 82 82 82 311 311 311 311 243 243 237 237 237 237 394 394 394
 394 394 394 394 120 120 120 120 120 183 178 178 178 191 82 82 311 311 311 311
 311 311 243 237 237 237 237 394 394 394 394 394 394 394 120 120 120 120 120 183
 178 178 178 178 191 82 311 311 311 311 311 311 311 237 237 237 237 54 54 54
 54 54 54 336 336 120 120 120 120 183 178 178 178 178 27 27 27 27 311 311
 311 311 311 294 294 215 54 54 54 54 54 54 54 336 336 336 336 152 152 152
 178 178 178 27 27 27 27 27 69 69 69 69 294 294 294 294 54 54 54 54
 54 54 397 336 336 336 336 152 152 152 316 178 316 27 27 27 27 27 69 69
 69 69 294 294 294 294 121 121 121 54 54 397 397 397 397 387 152 152 152 152
 316 316 316 316 210 210 210 27 69 69 69 69 294 294 294 294 121 121 121 121
 121 397 397 397 397 397 336 152 152 316 316 316 316 316 210 210 210 210 69 69
 69 55 55 294 294 294 121 121 121 121 121 397 397 397 397 397 336 152 316 316
 316 316 316 316 210 210 210 210 69 69 69 55 55 112 112 112 121 121 121 138
 138 138 397 397 397 397 397 316 316 316 316 316 316 316 316 210 210 210 68 68
 112 112 112 112 112 112 112 138 138 138 138 138 397 397 397 397 233 233 316 316
 316 316 316 316 316 210 68 68 68 68 112 112 112 112 112 112 338 138 138 138
 138 138 397 397 397 397 233 233 233 316 316 316 316 316 316 68 68 68 68 68
 112 112 112 24 24 338 338 338 328 328 328 328 328 397 397 233 233 233 233 316
 316 2 316 316 316 323 68 68 68 68 112 112 112 24 24 338 338 338 328 328
 328 328 328 162 162 162 268 268 268 316 140 140 140 140 323 323 323 68 68 20
 20 20 20 20 20 338 338 338 328 328 328 328 328 162 162 162 268 268 268 316
 140 140 140 140 323 323 323 281 281 20 20 20 20 20 20 20 338 338 328 328
 328 328 328 162 162 162 268 268 168 140 140 140 140 140 323 323 281 281 281 281
 20 20 20 20 20 20 67 67 67 247 247 159 159 159 159 159 168 168 168 140
 140 140 140 140 323 323 281 281 281 20 20 20 20 20 20 20 67 67 67 247
 247 159 159 159 159 153 153 168 168 140 140 140 140 140 323 323 281 202 202 202
 202 20 20 20 20 67 67 67 67 247 247 247 159 159 159 153 153 168 168 140
 113 113 113 113 323 323 281 202 202 202 202 20 20 20 20 67 67 67 67 247
 247 337 159 159 159 153 153 125 125 125 113 113 113 113 113 323 202 202 202 202
 202 202 20 20 20 67 67 67 67 337 337 337 337 159 159 125 125 125 125 125
 113 113 113 113 113 202 202 202 202 202 202 202 20 20 141 42 42 42 42 337
 337 337 337 159 159 125 125 125 125 125 192 192 192 192 303 303 202 202 202 202
 202 202 141 141 141 42 42 42 42 42 337 337 337 125 125 125 125 125 125 125
 192 192 192 192 303 303 221 101 101 101 101 126 141 141 141 42 42 42 42 42
 96 96 96 22 22 22 125 125 125 125 192 192 192 192 303 303 221 101 101 101
 101 126 126 141 141 272 272 42 42 42 96 96 96 22 22 22 22 125 125 192
 192 192 192 192 352 352 352 101 101 101 101 126 126 126 272 272 272 272 42 96
 96 96 96 22 22 22 22 125 18 18 18 18 192 192 352 352 352 101 101 101
 39 39 126 272 272 272 272 272 272 394 96 96 96 22 22 22 22 18 18 18
 18 18 192 352 352 352 352 101 101 39 39 39 39 272 272 272 272 272 394 394
 394 394 394 120 120 120 120 183 18 18 183 18 192 352 352 82 352 317 317 317
 317 243 243 237 237 237 237 394 394 394 394 394 394 120 120 120 120 120 183 183
 183 211 211 23 82 82 82 317 317 317 317 243 243 237 237 237 237 394 394 394
 394 394 394 394 120 120 120 183 183 183 211 211 211 82 82 82 82 311 311 311
 311 243 243 237 237 237 237 394 394 332 394 394 394 394 120 120 120 183 183 183
 211 211 211 191 82 82 311 311 311 311 311 311 243 237 237 237 237 394 394 394
 394 394 394 394 120 120 120 120 183 183 178 178 191 191 191 191 311 311 311 311
 311 311 311 237 237 237 237 394 394 394 394 394 394 394 120 120 120 120 183 183
 178 178 191 191 191 191 311 311 311 311 311 311 311 237 237 215 237 394 54 54
 54 54 54 336 336 336 336 336 183 183 178 178 191 191 191 191 27 311 311 311
 311 311 311 294 215 215 215 54 54 54 54 54 336 336 336 336 336 336 336 336
 178 178 330 330 191 27 27 27 311 69 311 311 294 294 294 215 215 54 54 54
 54 54 397 336 336 336 336 336 336 336 316 330 330 330 330 27 27 27 69 69
 69 69 294 294 294 294 121 121 121 121 121 397 397 397 387 387 387 336 336 336
 316 316 330 330 330 210 345 345 345 69 69 69 294 294 294 294 121 121 121 121
 121 397 397 397 397 387 336 336 336 316 316 316 316 330 210 210 345 345 345 69
 69 55 55 112 294 225 121 121 121 121 121 397 397 397 397 397 336 336 336 316
 316 316 316 316 316 210 345 345 345 345 69 112 112 112 112 225 121 121 121 121
 138 138 397 397 397 397 397 336 316 316 316 316 316 316 316 210 300 300 300 300
 112 112 112 112 112 225 225 121 138 138 138 138 397 397 397 397 233 233 233 316
 316 316 316 316 316 293 300 300 300 300 112 112 112 112 112 225 338 138 138 138
 138 138 397 397 397 233 233 233 233 316 2 2 2 316 293 293 300 300 300 300
 112 112 112 112 112 338 338 338 138 138 138 328 328 397 397 233 233 233 233 316
 316 2 2 316 293 293 300 300 300 300 112 112 112 112 338 338 338 338 328 328
 328 328 328 162 162 251 268 268 268 316 140 140 140 323 323 323 323 323 300 300
 20 20 20 338 338 338 338 338 328 328 328 328 328 162 251 251 268 268 268 268
 140 140 140 323 323 323 323 323 323 20 20 20 20 20 338 338 338 338 338 328
 328 328 328 162 162 251 268 268 268 140 140 140 140 323 323 323 323 323 281 20
 20 20 20 20 20 338 67 67 67 67 247 159 159 159 159 159 164 164 164 140
 140 140 140 140 323 323 323 323 323 20 20 20 20 20 20 67 67 67 67 67
 247 159 159 159 159 159 164 164 164 140 140 140 140 140 323 323 323 202 202 202
 20 20 20 20 20 67 67 65 67 67 247 159 159 159 159 159 164 164 164 164
 232 232 232 232 323 323 323 202 202 202 202 20 20 20 20 67 67 67 67 67
 247 159 159 159 159 159 164 164 125 125 232 232 232 232 232 14 202 202 202 202
 202 202 327 327 327 67 67 67 67 67 110 110 159 159 159 125 125 125 125 125
 232 232 232 232 14 14 202 202 202 202 202 202 327 327 327 327 42 42 42 337
 337 110 337 159 125 125 125 125 125 125 192 192 192 192 221 221 221 202 202 202
 202 202 327 141 141 42 42 42 42 42 337 337 96 125 125 125 125 125 125 125
 192 192 192 192 221 221 221 221 101 101 126 126 126 141 141 141 42 42 42 42
 96 96 96 96 125 125 125 125 125 125 192 192 192 192 221 221 221 101 101 101
 126 126 126 126 141 349 349 42 42 33 96 96 96 22 125 125 125 125 125 192
 18 192 192 192 221 221 221 101 101 101 101 126 126 126 349 349 349 349 33 33
 96 96 96 22 22 125 125 125 18 18 18 18 192 192 352 352 352 101 101 101
 101 126 126 126 349 349 349 349 394 394 96 96 96 22 156 156 156 18 18 18
 18 18 192 23 352 352 352 317 317 317 317 39 126 126 349 349 272 272 394 394
 394 394 394 394 120 120 183 183 18 18 18 18 23 23 23 82 352 317 317 317
 317 243 243 237 237 237 237 394 394 394 394 394 394 394 120 120 183 183 183 183
 211 211 211 23 23 23 116 116 116 317 317 364 364 364 237 237 237 394 394 394
 394 394 394 394 183 183 183 183 183 183 211 211 211 23 23 82 82 311 311 311
 311 311 364 364 237 237 237 394 394 394 394 394 394 394 183 183 183 183 183 183
 211 211 211 211 191 82 311 311 311 311 311 311 364 364 237 237 237 394 394 394
 394 394 394 394 183 183 183 183 183 183 211 211 191 191 191 191 311 311 311 311
 311 311 311 237 237 237 237 394 394 394 394 394 394 394 336 183 183 183 183 183
 178 191 191 191 191 191 191 311 311 311 311 311 311 215 215 215 215 394 394 394
 394 394 358 336 336 336 336 336 336 336 178 191 191 191 191 191 263 263 263 311
 311 311 311 215 215 215 215 215 54 54 54 54 336 336 336 336 336 336 336 336
 330 330 330 330 191 191 263 263 263 263 311 311 207 207 215 215 215 215 54 54
 54 397 397 336 336 336 336 336 336 336 330 330 330 330 330 27 263 263 263 263
 69 207 207 207 207 215 215 121 121 121 121 397 397 336 336 336 336 336 336 336
 330 330 330 330 330 345 345 345 345 345 345 207 207 207 207 207 121 121 121 121
 121 397 397 397 336 336 336 336 336 336 316 330 330 330 330 345 345 345 345 345
 345 207 207 207 207 225 121 121 121 121 121 397 397 397 397 336 336 336 336 336
 316 316 316 316 316 345 345 345 345 345 345 112 112 112 225 225 225 121 121 121
 138 397 397 397 397 397 336 336 233 316 316 316 316 316 293 293 300 300 300 300
 112 112 112 112 225 225 225 225 138 138 138 138 397 397 397 397 233 233 233 233
 316 2 316 316 293 293 300 300 300 300 112 112 112 112 112 225 225 225 138 138
 138 138 360 360 397 233 233 233 233 233 2 2 2 293 293 293 300 300 300 300
 112 112 112 112 338 338 338 338 338 138 138 138 360 360 251 251 233 233 233 233
 2 2 2 293 293 293 300 300 300 300 300 112 112 338 338 338 338 338 338 328
 328 328 328 251 251 251 251 268 268 233 140 140 140 293 293 293 300 300 300 300
 300 112 338 338 338 338 338 338 338 328 328 328 328 251 251 251 251 268 268 268
 140 140 140 140 323 323 323 323 300 300 20 20 20 338 338 338 338 338 338 328
 328 198 198 251 251 251 251 268 268 140 140 140 140 140 323 323 323 323 323 203
 20 20 20 20 338 338 338 67 67 67 198 198 159 159 159 164 164 164 164 140
 140 140 140 140 323 323 323 323 203 203 203 20 20 20 20 67 67 67 67 67
 247 159 159 159 159 164 164 164 164 164 232 232 232 232 323 323 323 203 203 203
 203 20 20 20 20 67 67 67 67 67 247 159 159 159 159 164 164 164 164 164
 232 232 232 232 14 14 14 202 203 203 203 327 327 327 327 67 67 67 67 67
 110 110 159 159 159 164 164 164 164 232 232 232 232 232 14 14 14 202 202 202
 202 327 327 327 327 327 67 67 67 67 110 110 110 159 159 125 125 125 125 232
 232 232 232 232 14 14 14 202 202 202 202 327 327 327 327 327 67 42 67 110
 110 110 110 159 159 125 125 125 125 125 232 232 232 232 14 14 14 202 202 202
 202 327 327 327 327 327 42 42 42 33 110 110 110 339 339 125 125 125 125 125
 192 192 192 192 147 147 147 147 101 126 126 126 126 126 141 349 349 42 33 33
 33 96 96 339 339 125 125 125 125 192 192 192 192 192 147 147 303 303 101 101
 126 126 126 126 349 349 349 349 33 33 33 96 96 339 339 339 125 125 125 192
 192 192 192 192 147 147 303 101 101 101 126 126 126 126 349 349 349 349 33 33
 96 96 96 339 156 156 156 18 18 18 18 192 192 192 23 352 303 116 101 101
 126 126 126 126 349 349 349 349 33 33 96 96 96 156 156 156 156 18 18 18
 18 18 23 23 23 23 116 116 317 317 317 126 126 349 349 349 349 349 394 394
 394 394 394 156 156 156 156 183 18 18 18 23 23 23 23 23 116 116 317 317
 317 126 126 364 237 237 237 394 394 394 394 394 394 394 120 183 183 183 183 183
 211 211 23 23 23 23 116 116 116 116 116 364 364 364 364 237 237 394 394 394
 394 394 394 394 183 183 183 183 183 211 211 211 211 23 23 23 116 116 116 116
 311 364 364 364 364 237 237 394 394 394 394 394 394 394 183 183 183 183 76 211
 211 211 211 211 23 191 116 311 311 311 311 311 364 364 364 237 237 394 394 394
 394 394 394 394 183 183 76 76 76 76 211 211 191 191 191 191 311 311 311 311
 311 311 364 364 364 215 237 394 394 394 394 394 358 358 336 183 76 76 76 76
 211 211 191 191 191 191 191 263 263 311 311 311 364 215 215 215 215 215 394 394
 394 358 358 358 336 336 336 336 336 336 343 343 191 191 191 191 263 263 263 263
 311 311 215 215 215 215 215 215 215 66 66 358 358 358 336 336 336 336 336 336
 343 343 330 191 191 191 263 263 263 263 311 207 207 207 215 215 215 215 215 66
 66 358 358 336 336 336 336 336 336 336 330 330 330 330 330 191 263 263 263 263
 263 207 207 207 207 215 215 354 121 121 397 397 397 336 336 336 336 336 336 336
 330 330 330 330 330 345 345 345 345 345 345 207 207 207 207 215 354 121 121 121
 121 397 397 397 336 336 336 336 336 336 49 49 330 330 330 345 345 345 345 345
 345 207 207 207 207 225 225 121 121 121 121 397 397 397 397 336 336 336 336 336
 316 49 316 316 330 345 345 345 345 345 345 112 112 225 225 225 225 225 121 121
 138 360 360 360 397 336 336 336 372 372 316 316 316 293 293 293 300 300 300 300
 4 112 112 112 225 225 225 225 138 138 360 360 360 360 360 360 233 233 233 233
 316 2 316 293 293 293 300 300 300 300 4 112 112 112 225 225 225 225 108 108
 138 360 360 360 360 360 233 233 233 233 2 2 2 293 293 293 300 300 300 300
 4 4 112 338 338 338 338 338 338 108 108 360 360 360 360 251 233 233 233 233
 2 2 293 293 293 293 300 300 300 300 4 4 338 338 338 338 338 338 338 108
 328 328 360 251 251 251 251 251 268 233 259 140 140 293 293 293 300 300 300 300
 4 338 338 338 338 338 338 338 338 338 198 198 198 251 251 251 251 251 259 259
 259 140 140 140 323 323 323 300 300 335 335 338 338 338 338 338 338 338 338 314
 198 198 198 198 251 251 251 251 259 259 259 140 140 140 323 323 323 323 335 335
 335 20 338 338 338 338 338 338 338 314 198 198 198 198 251 251 164 164 164 259
 259 140 140 140 323 323 323 203 203 203 203 203 194 194 194 338 67 67 67 67
 198 198 198 283 283 164 164 164 164 164 232 232 232 232 232 323 203 203 203 203
 203 203 327 327 194 67 67 67 67 67 110 110 159 159 159 164 164 164 164 164
 232 232 232 232 14 14 14 203 203 203 203 327 327 327 327 327 67 67 67 67
 110 110 110 159 159 164 164 164 164 232 232 232 232 232 14 14 14 14 203 203
 203 327 327 327 327 327 67 67 67 110 110 110 110 159 159 164 164 164 164 232
 232 232 232 232 14 14 14 14 265 265 327 327 327 327 327 327 351 351 351 110
 110 110 110 159 339 339 125 125 125 232 232 232 232 232 14 14 14 14 265 265
 265 327 327 327 327 327 351 351 351 33 110 110 110 339 339 339 339 125 125 232
 192 192 192 192 147 147 147 147 265 265 126 126 126 126 327 349 349 351 33 33
 33 96 96 339 339 339 339 125 125 192 192 192 192 192 147 147 147 147 265 126
 126 126 126 126 349 349 349 349 33 33 33 96 96 339 339 339 339 339 125 192
 192 192 192 192 147 147 147 147 116 101 126 126 126 126 349 349 349 349 33 33
 33 96 96 339 339 156 339 339 18 18 18 192 192 23 23 23 147 116 116 116
 126 126 126 349 349 349 349 349 33 33 33 150 150 339 156 156 156 18 18 18
 18 23 23 23 23 23 116 116 116 116 126 126 126 349 349 349 349 349 394 394
 394 150 150 156 156 156 156 183 18 18 211 211 23 23 23 23 116 116 116 116
 116 253 364 364 349 349 349 394 394 394 394 150 150 150 156 156 183 183 183 183
 211 211 23 23 23 23 116 116 116 116 116 253 253 364 364 364 333 333 333 394
 150 150 150 150 76 76 76 76 76 76 211 211 211 23 23 23 116 116 116 116
 116 364 364 364 364 364 333 333 333 394 394 150 150 150 76 76 76 76 76 76
 211 211 211 211 23 116 116 116 116 116 311 364 364 364 364 364 333 333 394 394
 394 394 358 358 76 76 76 76 76 76 211 211 191 191 191 191 263 263 116 311
 311 311 364 364 364 215 333 333 394 394 394 358 358 358 358 76 76 76 76 76
 211 191 191 191 191 191 263 263 263 263 311 311 106 364 215 215 215 215 66 66
 66 358 358 358 358 336 336 336 76 76 343 343 191 191 191 191 263 263 263 263
 311 106 106 106 215 215 215 215 66 66 66 358 358 358 358 336 336 336 336 336
 343 343 343 191 191 191 263 263 263 263 106 106 106 207 215 215 215 215 66 66
 66 358 358 358 336 336 336 336 336 336 343 343 343 330 330 200 263 263 263 263
 263 106 207 207 207 215 354 354 354 66 66 397 336 336 336 336 336 336 336 336
 49 49 49 330 330 200 345 345 345 345 345 106 207 207 207 207 354 354 354 121
 80 397 397 336 336 336 336 336 336 336 49 49 49 330 330 345 345 345 345 345
 345 106 207 207 207 354 354 354 354 354 360 360 360 360 336 336 336 336 336 372
 49 49 49 330 345 345 345 345 345 345 345 4 4 225 225 225 354 354 354 354
 360 360 360 360 360 360 372 372 372 372 49 49 49 293 293 293 293 300 300 300
 4 4 4 112 225 225 225 225 354 360 360 360 360 360 360 360 372 372 372 372
 316 49 293 293 293 293 293 300 300 300 4 4 4 4 225 225 225 225 108 108
 108 360 360 360 360 360 372 372 372 372 280 280 293 293 293 293 293 300 300 300
 4 4 4 338 338 338 338 338 108 108 108 360 360 360 360 360 372 372 372 372
 259 260 260 293 293 293 293 300 300 300 4 4 4 338 338 338 338 338 108 108
 108 360 360 360 251 251 251 251 259 259 259 259 260 260 293 293 293 300 300 300
 4 4 338 338 338 338 338 338 338 314 198 198 198 198 251 251 251 251 259 259
 259 259 140 260 403 403 403 300 335 335 335 335 338 338 338 338 338 338 314 314
 198 198 198 198 251 251 251 259 259 259 259 259 140 140 403 403 403 335 335 335
 335 194 194 194 338 338 338 338 314 314 198 198 198 198 283 251 164 259 259 259
 259 259 140 403 403 403 403 403 335 335 335 194 194 194 194 194 338 338 314 314
 198 198 283 283 283 164 164 164 164 259 232 232 232 232 403 403 403 203 203 203
 203 194 194 194 194 194 67 67 314 314 198 283 283 283 283 164 164 164 164 164
 232 232 232 232 14 14 14 14 203 203 203 327 327 327 327 194 351 351 351 314
 110 110 283 283 283 164 164 164 164 232 232 232 232 232 14 14 14 14 203 203
 203 327 327 327 327 327 351 351 351 351 110 110 110 283 283 164 164 164 164 232
 232 232 232 232 14 14 14 14 265 265 265 327 327 327 327 351 351 351 351 351
 110 110 110 339 339 339 339 339 125 232 232 232 232 232 14 14 14 265 265 265
 265 327 327 327 327 351 351 351 351 351 110 110 110 339 339 339 339 339 125 232
 46 46 46 232 147 147 147 147 265 265 265 126 126 327 327 349 351 351 33 33
 33 33 339 339 339 339 339 339 339 192 46 46 46 46 147 147 147 147 265 265
 126 126 126 126 349 349 349 349 33 33 33 33 339 339 339 339 339 339 339 192
 46 46 46 46 147 147 147 147 116 116 126 126 126 126 349 349 349 349 33 33
 33 33 339 339 339 339 339 339 375 375 375 46 23 23 23 378 116 116 116 116
 126 126 126 349 349 349 349 349 400 400 400 150 150 339 156 156 156 339 375 375
 375 23 23 23 23 23 116 116 116 116 116 253 253 253 349 349 349 349 400 400
 150 150 150 150 156 156 156 339 375 375 211 23 23 23 23 23 116 116 116 116
 116 253 253 253 253 349 349 349 400 150 150 150 150 150 156 156 76 76 76 76
 211 211 23 23 23 23 116 116 116 116 116 253 253 253 253 253 333 333 333 150
 150 150 150 150 150 76 76 76 76 76 211 211 23 23 23 23 116 116 116 116
 116 253 253 253 253 333 333 333 333 333 150 150 150 150 76 76 76 76 76 76
 211 211 211 23 23 116 116 116 116 116 366 366 131 131 131 333 333 333 333 333
 394 150 150 358 76 76 76 76 76 76 132 132 132 191 191 191 116 116 366 366
 366 366 131 131 131 131 333 333 333 394 66 358 358 358 358 76 76 76 76 76
 132 132 191 191 191 191 263 263 263 366 366 366 131 131 131 215 215 333 66 66
 66 358 358 358 358 358 336 111 76 76 343 343 343 191 191 191 263 263 263 263
 106 106 106 106 215 215 215 66 66 66 66 358 358 358 358 358 336 111 111 132
 343 343 343 191 191 191 263 263 263 263 106 106 106 106 383 383 383 383 66 66
 130 358 358 358 358 336 336 336 336 343 343 343 343 330 200 200 200 263 263 263
 106 106 106 106 383 383 383 354 354 130 130 130 358 358 336 336 336 336 336 343
 49 49 49 330 200 200 200 200 345 278 278 278 207 383 383 383 354 354 354 80
 80 329 329 329 336 336 336 336 336 343 49 49 49 330 200 200 200 345 345 278
 278 278 207 383 383 354 354 354 354 354 360 360 360 360 360 336 372 372 372 372
 49 49 49 49 200 200 345 345 345 278 278 4 4 225 225 354 354 354 354 354
 360 360 360 360 360 360 372 372 372 372 49 49 49 293 293 293 293 300 300 4
 4 4 4 4 225 225 354 354 354 354 360 360 360 360 360 360 372 372 372 372
 372 49 293 293 293 293 293 300 300 4 4 4 4 4 225 225 225 108 108 108
 108 360 360 360 360 360 372 372 372 372 280 280 280 293 293 293 293 300 300 4
 4 4 4 4 338 338 338 108 108 108 108 360 360 360 360 360 372 372 372 372
 280 280 260 260 293 293 293 300 300 4 4 4 4 338 338 338 338 338 108 108
 108 360 360 360 360 360 372 372 372 372 280 280 260 260 293 293 293 300 335 335
 4 4 4 338 338 338 338 338 314 314 314 198 198 198 251 251 251 259 259 259
 259 280 280 260 403 403 403 335 335 335 335 335 338 338 338 338 338 338 314 314
 314 198 198 198 254 254 254 259 259 259 259 259 280 260 403 403 403 335 335 335
 335 335 194 194 338 338 338 314 314 314 314 198 198 283 283 254 254 259 259 259
 259 259 259 403 403 403 403 335 335 335 335 194 194 194 194 194 338 314 314 314
 314 198 283 283 283 254 254 259 259 259 259 232 232 232 31 31 31 31 335 335
 335 194 194 194 194 194 194 314 314 314 198 283 283 283 283 283 164 164 164 259
 232 232 232 232 31 31 31 31 203 203 203 194 194 194 194 194 351 351 351 351
 110 283 283 283 283 283 164 219 164 232 232 232 232 232 31 31 31 31 265 265
 265 327 327 194 194 351 351 351 351 351 110 110 283 283 283 283 219 219 219 232
 232 232 232 232 31 31 31 31 265 265 265 327 327 327 327 351 351 351 351 351
 110 110 110 283 339 339 219 219 219 232 232 232 232 232 31 31 31 265 265 265
 265 265 327 327 327 351 351 351 351 351 351 110 339 339 339 339 339 339 219 232
 46 46 46 46 378 378 378 265 265 265 265 265 126 163 163 163 163 351 351 351
 400 400 339 339 339 339 339 339 339 46 46 46 46 46 378 378 378 378 265 265
 265 126 126 163 163 163 163 400 400 400 400 400 400 339 339 339 339 339 339 46
 46 46 46 378 378 378 378 378 378 116 126 126 126 163 163 163 163 400 400 400
 400 400 400 339 339 339 339 339 375 375 375 46 46 378 378 378 378 116 116 116
 116 253 253 253 349 349 349 400 400 400 400 150 150 339 339 339 339 339 375 348
 375 46 23 23 23 378 378 116 116 116 116 253 253 253 253 349 349 400 400 400
 150 150 150 150 156 156 156 375 375 375 375 23 23 23 23 378 116 116 116 116
 116 253 253 253 253 253 349 400 400 400 150 150 150 150 150 76 76 76 76 76
 1 211 23 23 378 378 116 116 116 116 116 253 253 253 253 253 333 333 333 400
 150 150 150 150 150 76 76 76 76 76 1 211 23 23 320 320 116 116 116 116
 366 253 253 253 253 253 333 333 333 333 150 150 150 150 76 76 76 76 76 76
 132 132 132 23 320 320 116 116 366 366 366 366 131 131 131 131 333 333 333 333
 150 150 150 358 104 76 76 76 76 76 132 132 132 132 320 320 116 366 366 366
 366 366 131 131 131 131 333 333 333 66 66 358 358 358 104 76 76 76 76 76
 132 132 132 132 191 191 366 366 366 366 366 366 131 131 131 131 383 66 66 66
 66 358 358 358 358 104 111 111 111 132 132 132 132 132 191 191 263 366 366 366
 366 106 106 106 383 383 383 383 66 66 66 358 358 358 358 358 111 111 111 132
 132 132 132 132 200 200 200 263 263 263 106 106 106 106 383 383 383 383 80 80
 130 130 358 358 358 336 111 111 111 132 343 343 343 343 200 200 200 200 278 278
 278 106 106 383 383 383 383 383 80 80 130 130 329 329 329 336 336 336 111 343
 49 49 49 49 200 200 200 200 278 278 278 278 106 383 383 383 383 354 80 80
 80 329 329 329 329 329 372 372 372 372 49 49 49 190 200 200 200 200 278 278
 278 278 278 383 383 383 354 354 354 80 80 329 329 329 329 329 372 372 372 372
 49 49 49 190 190 200 200 278 278 278 278 278 278 83 383 354 354 354 354 354
 360 360 360 360 360 372 372 372 372 372 372 49 190 190 190 293 239 239 278 278
 278 4 4 4 225 225 354 354 354 360 360 360 360 360 360 372 372 372 372 372
 372 190 190 190 190 293 239 239 239 239 4 4 4 4 97 97 381 354 108 108
 108 360 360 360 360 372 372 372 372 372 280 280 280 190 293 293 239 239 239 239
 4 4 4 4 338 338 338 108 108 108 108 360 360 360 360 372 372 372 372 372
 280 280 280 260 293 293 239 239 239 239 4 4 4 4 338 338 338 338 108 108
 108 360 360 360 360 372 372 372 372 280 280 280 280 260 293 293 293 239 335 335
 4 4 4 338 338 338 338 338 314 314 314 198 198 198 254 254 254 259 259 280
 280 280 280 280 403 403 403 239 335 335 335 4 4 338 338 338 338 338 314 314
 314 198 198 254 254 254 254 259 259 259 259 280 280 280 403 403 403 335 335 335
 335 335 194 194 338 338 338 314 314 314 314 198 198 283 254 254 254 259 259 259
 259 259 280 403 403 403 403 403 335 335 335 194 194 194 194 194 338 314 314 314
 314 198 283 283 283 254 254 254 259 259 259 259 232 31 31 31 31 31 335 335
 335 194 194 194 194 194 194 324 324 314 314 283 283 283 283 254 254 219 219 259
 309 309 309 31 31 31 31 31 31 203 194 194 194 194 194 194 351 324 324 324
 324 283 283 283 283 283 219 219 219 219 309 309 309 31 31 31 31 31 31 265
 265 194 194 194 194 351 351 351 351 351 351 283 283 283 283 219 219 219 219 219
 309 309 309 31 31 31 31 31 265 265 265 265 327 327 327 351 351 351 351 351
 351 283 283 283 283 219 219 219 219 219 232 309 232 31 31 31 31 31 265 265
 265 265 163 163 163 163 351 351 351 351 351 400 339 339 339 339 219 219 219 219
 46 46 46 378 378 378 378 378 265 265 265 265 163 163 163 163 163 351 351 400
 400 400 400 339 339 339 339 339 205 205 46 46 46 378 378 378 378 378 378 265
 265 265 163 163 163 163 163 163 400 400 400 400 400 339 339 339 339 205 205 205
 46 46 46 378 378 378 378 378 378 378 265 126 163 163 163 163 163 400 400 400
 400 400 400 339 339 339 339 205 205 375 375 46 378 378 378 378 378 378 116 116
 116 253 253 253 163 163 400 400 400 400 400 400 400 400 339 339 339 205 375 375
 375 375 378 378 378 378 378 116 116 116 116 253 253 253 253 253 400 400 400 400
 400 150 150 150 150 57 57 57 375 375 375 375 378 378 378 378 116 116 116 116
 116 253 253 253 253 253 400 400 400 400 150 150 150 150 150 57 57 57 57 76
 1 1 1 23 378 320 116 116 116 116 116 253 253 253 158 158 158 400 400 400
 400 400 150 150 57 57 57 57 57 76 1 1 1 320 320 320 320 116 116 366
 366 253 253 253 158 158 333 333 333 400 150 150 150 150 104 76 76 76 76 76
 1 1 132 320 320 320 320 366 366 366 366 366 131 131 131 131 333 333 333 333
 150 150 150 104 104 76 76 76 76 76 132 132 132 132 320 320 320 366 366 366
 366 366 131 131 131 131 131 29 29 29 80 358 104 104 104 104 76 111 76 132
 132 132 132 132 132 320 366 366 366 366 366 366 131 131 131 131 29 29 29 29
 80 358 104 104 104 104 111 111 111 132 132 132 132 132 132 393 393 366 366 366
 366 106 106 131 383 383 383 29 29 80 80 358 358 104 104 104 111 111 111 132
 132 132 132 132 132 200 200 366 366 366 106 106 106 383 383 383 383 383 80 80
 80 130 358 104 104 104 111 111 111 132 132 132 132 132 200 200 200 200 278 278
 278 106 106 383 383 383 383 383 80 80 80 130 329 329 329 329 111 111 111 132
 49 49 49 200 200 200 200 278 278 278 278 278 83 383 383 383 383 383 80 80
 80 329 329 329 329 329 372 372 372 372 49 49 190 190 200 200 200 278 278 278
 278 278 83 83 383 383 383 383 80 80 80 329 329 329 329 329 372 372 372 372
 372 190 190 190 190 200 200 278 278 278 278 278 83 83 83 383 354 354 354 80
 80 329 329 329 329 372 372 372 372 372 372 190 190 190 190 190 239 239 278 278
 278 278 83 83 97 97 381 381 381 360 360 360 360 360 360 372 372 372 372 372
 372 190 190 190 190 190 239 239 239 239 4 4 4 97 97 97 381 381 381 108
 108 360 360 360 360 372 372 372 372 372 280 280 280 190 190 239 239 239 239 239
 4 4 4 97 97 97 381 381 381 108 108 360 360 360 360 372 372 372 372 372
 280 280 280 280 43 43 239 239 239 239 4 4 4 97 97 97 381 381 381 108
 108 360 360 360 360 372 372 372 372 280 280 280 280 280 43 43 43 239 239 239
 4 4 4 338 338 338 381 381 381 314 314 198 198 254 254 254 254 254 259 280
 280 280 280 280 43 43 43 239 335 335 335 4 4 338 338 338 338 338 314 314
 314 198 198 254 254 254 254 254 259 280 280 280 280 280 43 43 189 189 189 335
 335 335 194 194 338 338 338 314 314 314 314 198 198 254 254 254 254 254 259 259
 259 259 280 280 403 189 189 189 189 189 335 194 194 194 194 194 324 324 314 314
 314 198 283 283 254 254 254 254 259 259 137 309 309 31 31 31 189 189 189 189
 240 240 194 194 194 194 324 324 324 324 324 283 283 283 283 254 254 219 219 137
 309 309 309 31 31 31 31 189 189 189 240 194 194 194 194 194 324 324 324 324
 324 283 283 283 283 219 219 219 219 219 309 309 309 31 31 31 31 31 189 72
 72 194 194 194 194 351 351 324 324 324 324 324 283 283 283 219 219 219 219 219
 309 309 309 31 31 31 31 31 72 72 72 72 194 194 163 351 351 351 351 324
 324 324 102 102 102 219 219 219 219 219 309 309 309 31 31 31 31 31 72 72
 72 72 163 163 163 163 163 351 351 351 351 400 102 102 102 102 219 219 219 219
 46 46 46 378 378 378 378 378 265 72 265 265 163 163 163 163 163 163 400 400
 400 400 400 102 102 102 102 205 205 205 46 46 46 378 378 378 378 378 378 122
 122 163 163 163 163 163 163 163 400 400 400 400 400 102 102 102 102 205 205 205
 398 398 378 378 378 378 378 378 378 378 158 158 163 163 163 163 163 400 400 400
 400 400 400 102 102 102 102 205 205 205 398 398 378 378 378 378 378 378 378 378
 158 158 158 158 163 163 400 400 400 400 400 400 400 102 102 102 102 205 205 205
 375 398 378 378 378 378 378 378 116 116 158 158 158 158 158 158 400 400 400 400
 400 400 400 150 150 57 57 57 57 375 1 1 378 378 378 378 378 116 116 116
 158 158 253 158 158 158 400 400 400 400 400 400 400 150 57 57 57 57 57 57
 1 1 1 1 320 320 320 116 73 73 73 158 158 158 158 158 158 400 400 400
 400 400 400 150 57 57 57 57 57 1 1 1 1 1 320 320 320 116 73 73
 73 206 206 158 158 158 158 400 400 400 400 400 400 104 104 57 57 57 57 1
 1 1 1 1 320 320 320 390 366 366 366 366 131 131 131 131 158 29 29 400
 400 400 104 104 104 104 76 76 1 1 86 132 1 1 320 320 390 390 366 366
 366 366 131 131 131 131 29 29 29 29 29 104 104 104 104 104 104 111 86 86
 86 132 132 132 393 393 390 390 366 366 366 366 131 131 131 29 29 29 29 29
 29 104 104 104 104 104 104 111 86 86 132 132 132 132 393 393 393 390 366 366
 366 366 106 131 383 29 29 29 29 29 80 104 104 104 104 104 111 111 111 86
 132 132 132 132 393 393 393 393 366 366 366 106 106 383 383 383 383 29 29 80
 80 130 104 104 104 104 111 111 111 86 132 132 132 285 393 200 200 200 278 278