# vtk DataFile Version 2.0
Data set from IO Version 6.4.197.9a0dee2
ASCII

DATASET RECTILINEAR_GRID
DIMENSIONS 31 31 31
X_COORDINATES 31 float
-5.500000 5.500000 16.500000 27.500000 38.500000 49.500000 60.500000 71.500000 82.500000 93.500000 104.500000 115.500000 126.500000 137.500000 148.500000 159.500000 170.500000 181.500000 192.500000 203.500000 214.500000 
225.500000 236.500000 247.500000 258.500000 269.500000 280.500000 291.500000 302.500000 313.500000 324.500000 
Y_COORDINATES 31 float
-5.500000 5.500000 16.500000 27.500000 38.500000 49.500000 60.500000 71.500000 82.500000 93.500000 104.500000 115.500000 126.500000 137.500000 148.500000 159.500000 170.500000 181.500000 192.500000 203.500000 214.500000 
225.500000 236.500000 247.500000 258.500000 269.500000 280.500000 291.500000 302.500000 313.500000 324.500000 
Z_COORDINATES 31 float
-5.500000 5.500000 16.500000 27.500000 38.500000 49.500000 60.500000 71.500000 82.500000 93.500000 104.500000 115.500000 126.500000 137.500000 148.500000 159.500000 170.500000 181.500000 192.500000 203.500000 214.500000 
225.500000 236.500000 247.500000 258.500000 269.500000 280.500000 291.500000 302.500000 313.500000 324.500000 
CELL_DATA 27000
SCALARS FeatureIds int 1
LOOKUP_TABLE default
 332 332 332 332 316 316 316 316 115 115 115 115 347 347 347 347 347 12 12 12
 12 12 190 190 190 255 255 255 255 255 332 332 332 332 316 316 316 316 278 278
 278 301 347 347 347 347 347 12 12 12 12 12 190 190 190 371 371 371 371 371
 248 248 248 248 316 316 316 316 278 278 278 301 343 347 347 347 347 12 12 12
 12 12 190 190 190 371 371 371 371 371 248 248 248 248 316 316 316 278 278 278
 278 343 343 347 333 333 333 330 12 12 12 12 130 130 130 371 371 371 371 371
 248 248 248 248 162 162 400 400 278 278 278 343 343 173 173 333 333 330 330 382
 382 382 130 130 130 371 371 371 371 371 248 248 248 162 162 162 400 400 400 278
 278 343 343 173 173 173 173 173 330 382 382 382 382 130 130 130 371 371 371 371
 248 248 162 162 162 162 162 400 400 278 278 343 173 173 173 173 173 110 110 382
 382 382 382 382 130 130 371 371 371 371 357 357 162 162 162 162 162 162 400 212
 212 180 180 173 173 173 173 110 110 382 382 382 382 382 382 382 371 175 357 357
 357 357 50 50 162 162 162 162 212 212 212 180 180 180 173 173 173 110 110 382
 382 382 382 382 382 382 175 175 357 357 357 357 50 50 50 162 368 368 212 212
 212 180 180 180 180 180 173 110 110 382 382 382 382 382 382 175 175 175 175 357
 357 357 50 50 50 368 368 368 368 212 212 180 180 180 180 180 79 79 79 79
 382 382 382 382 367 367 175 175 175 357 357 357 50 50 148 148 368 368 368 368
 392 392 392 180 180 79 79 79 79 79 79 138 138 138 367 367 36 36 36 36
 193 193 193 193 148 148 368 368 368 368 392 392 392 392 79 79 79 79 79 79
 79 138 138 138 367 367 36 36 36 36 193 193 193 193 148 148 148 368 368 392
 392 392 392 411 79 79 79 79 79 79 79 138 138 138 367 367 36 36 36 36
 193 193 193 193 193 148 148 148 169 169 392 392 392 411 79 79 79 79 79 79
 79 138 138 138 367 367 36 36 36 36 193 193 193 193 193 70 70 148 169 169
 169 392 411 411 79 79 79 79 79 79 79 308 138 346 346 346 346 36 36 36
 356 193 193 193 193 70 70 70 169 169 169 199 199 199 199 79 79 79 79 79
 308 308 308 346 346 346 346 346 356 356 356 356 189 189 189 176 176 176 176 34
 34 34 199 199 199 199 79 226 226 226 308 308 321 321 346 346 346 346 356 356
 129 189 189 189 189 176 176 176 176 34 34 34 199 199 199 199 226 226 226 226
 226 308 321 321 321 346 346 346 129 129 129 2 189 189 189 176 176 176 176 34
 34 34 199 22 22 22 22 226 226 226 226 226 321 321 321 346 346 129 129 129
 129 2 2 2 389 389 176 176 176 34 34 221 221 22 22 22 22 22 226 226
 226 226 215 215 215 195 195 129 129 129 307 2 2 389 389 389 389 176 176 291
 221 221 221 22 22 22 22 22 226 226 226 215 215 215 215 215 195 195 129 307
 307 307 307 389 389 389 389 30 291 291 291 221 221 22 22 22 22 8 8 259
 259 259 215 215 215 215 140 140 140 307 307 307 307 389 389 389 30 30 291 291
 291 291 221 22 22 22 8 8 8 259 259 259 259 215 215 215 140 140 140 307
 307 307 307 307 389 30 30 30 30 291 291 291 221 22 22 22 8 8 8 259
 259 259 259 215 40 40 40 140 140 307 307 307 307 17 17 30 30 30 30 30
 30 37 369 369 369 369 369 273 8 259 259 259 259 259 40 40 40 295 295 295
 295 295 17 17 298 298 30 30 30 30 37 37 37 369 369 369 369 273 273 259
 259 259 202 202 202 40 40 295 295 295 295 295 332 298 298 298 298 30 5 5
 37 37 37 369 369 369 369 273 273 124 124 124 202 202 202 40 255 295 295 295
 295 332 332 298 298 298 298 5 5 5 37 37 37 369 369 369 273 273 273 124
 124 124 202 202 202 255 255 255 295 295 332 332 332 332 298 298 298 5 5 5
 37 37 37 369 369 347 347 273 12 12 124 124 202 202 202 255 255 255 255 295
 332 332 332 332 316 316 316 115 115 115 115 115 347 347 347 347 347 12 12 12
 12 12 190 190 190 255 255 255 255 255 332 332 332 103 316 316 316 88 115 115
 115 301 347 347 347 347 347 12 12 12 12 12 190 190 190 190 255 255 255 255
 248 248 248 248 316 316 316 278 278 278 278 301 343 347 347 347 347 12 12 12
 12 12 190 190 190 190 371 371 371 371 248 248 248 248 316 316 400 278 278 278
 278 301 343 347 333 333 333 12 12 12 12 12 190 190 190 371 371 371 371 371
 248 248 248 327 162 400 400 400 278 278 278 301 301 301 333 333 333 142 330 382
 382 382 382 382 130 371 371 371 371 371 248 248 327 327 162 162 400 400 400 278
 278 301 301 173 173 173 173 142 142 382 382 382 382 382 382 130 371 371 371 371
 248 248 162 162 162 162 162 400 400 278 146 146 173 173 173 173 173 110 110 382
 382 382 382 382 382 382 289 289 371 252 252 252 162 162 162 162 162 162 400 212
 212 180 180 173 173 173 110 110 110 382 382 382 382 382 382 382 289 175 252 252
 252 252 50 50 162 162 162 162 212 212 212 180 180 180 180 173 110 110 110 382
 382 382 382 382 382 382 175 175 252 252 252 252 50 50 50 162 368 368 212 212
 212 180 180 180 180 180 110 110 110 382 382 382 382 382 382 175 175 175 175 252
 252 252 50 50 50 368 368 368 368 212 212 180 180 180 180 180 79 79 79 79
 382 382 382 382 382 175 175 175 175 252 252 123 50 148 148 148 368 368 368 368
 392 392 180 180 180 79 79 79 79 79 79 138 138 138 138 36 36 36 36 36
 123 193 193 148 148 148 368 368 368 368 392 392 392 392 79 79 79 79 79 79
 79 138 138 138 138 36 36 36 36 36 193 193 193 193 148 148 148 368 368 392
 392 392 392 392 79 79 79 79 79 79 79 138 138 138 138 36 36 36 36 36
 193 193 193 193 148 148 148 148 169 392 392 392 392 392 79 79 79 79 79 79
 79 138 138 138 138 36 36 36 36 36 193 193 193 193 193 148 148 148 225 392
 392 392 392 199 79 79 79 79 79 79 79 300 138 138 346 346 346 36 36 356
 356 193 193 193 193 70 70 225 225 225 225 199 199 199 199 79 79 79 79 79
 300 300 300 346 346 346 346 346 356 356 356 356 189 189 189 176 176 176 225 225
 225 199 199 199 199 199 79 226 226 226 226 300 300 346 346 346 346 346 356 356
 356 189 189 189 189 176 176 176 176 225 34 34 199 199 199 199 199 226 226 226
 226 226 321 321 346 346 346 346 356 356 129 189 189 189 189 176 176 176 176 34
 34 34 199 199 22 22 22 226 226 226 226 226 215 321 346 346 346 346 129 129
 129 2 389 389 389 389 176 176 176 176 221 221 221 22 22 22 22 226 226 226
 226 226 215 215 215 215 195 129 129 129 307 307 389 389 389 389 389 176 176 176
 221 221 221 22 22 22 22 22 226 226 226 215 215 215 215 215 195 140 309 309
 307 307 389 389 389 389 389 30 30 291 221 221 221 22 22 22 8 8 8 259
 259 215 215 215 215 215 140 140 140 307 307 307 307 389 389 389 30 30 30 30
 291 291 221 22 22 22 8 8 8 259 259 259 215 215 215 215 140 140 140 307
 307 307 307 17 17 30 30 30 30 30 30 30 221 22 369 22 8 8 8 259
 259 259 259 215 40 40 140 140 140 307 295 240 17 17 17 30 30 30 30 30
 30 30 369 369 369 369 369 273 273 259 259 259 259 51 40 40 40 295 295 295
 295 295 17 17 17 30 30 30 30 30 30 37 37 369 369 369 273 273 273 273
 259 259 51 51 40 40 40 295 295 295 295 295 295 298 298 298 30 30 30 30
 30 37 37 369 369 369 273 273 273 273 124 124 202 51 202 255 255 295 295 295
 295 295 332 298 298 298 30 30 115 115 115 115 222 222 369 369 273 273 273 273
 124 124 202 202 202 255 255 255 295 295 295 332 332 332 298 298 30 115 115 115
 115 115 222 222 222 347 347 273 12 12 12 12 12 190 190 255 255 255 255 295
 332 332 103 103 103 88 88 88 115 115 115 115 222 222 347 347 347 12 12 12
 12 12 190 190 290 290 255 255 255 255 103 103 103 103 103 88 88 88 115 115
 115 115 222 347 347 347 347 12 12 12 12 12 190 190 190 190 255 255 255 255
 248 103 103 103 103 88 88 88 278 278 343 343 343 347 347 347 347 12 12 12
 12 12 190 190 190 97 97 97 97 97 248 103 103 103 103 88 88 88 278 278
 343 343 301 347 333 333 333 12 12 12 12 12 190 190 190 97 97 97 97 97
 248 248 327 327 327 327 400 400 400 278 278 301 301 333 333 333 142 142 142 382
 382 382 382 382 382 97 97 97 97 97 184 327 327 327 327 162 400 400 400 146
 146 301 113 173 173 173 142 142 142 382 382 382 382 382 382 289 289 289 97 97
 184 327 327 327 162 162 162 400 146 146 146 146 173 173 173 173 142 142 142 382
 382 382 382 382 382 289 289 289 289 252 252 252 327 162 162 162 162 162 146 146
 146 180 180 180 173 173 110 110 110 382 382 382 382 382 382 289 289 289 252 252
 252 252 50 50 162 162 162 162 146 146 146 180 180 180 180 173 110 110 110 382
 382 382 382 382 382 289 289 289 252 252 252 252 50 50 50 162 368 368 212 212
 212 180 180 180 180 180 110 110 110 382 382 382 382 382 382 289 289 175 175 252
 252 123 50 50 50 368 368 368 368 212 212 180 180 180 180 180 79 79 79 58
 382 382 382 382 382 289 175 175 175 252 123 123 123 148 148 368 368 368 368 368
 392 392 180 180 180 79 79 79 79 58 58 382 138 138 138 36 36 36 36 36
 123 123 123 148 148 148 368 368 368 368 392 392 392 392 79 79 79 79 79 79
 79 138 138 138 138 36 36 36 36 36 123 193 193 148 148 148 148 368 368 392
 392 392 392 392 79 79 79 79 79 79 79 138 138 138 138 36 36 36 36 36
 193 193 193 193 148 148 148 148 368 392 392 392 392 392 79 79 79 79 79 79
 79 138 138 138 138 36 36 36 36 36 193 193 193 193 148 148 148 148 225 225
 225 392 392 392 79 79 79 79 79 79 300 300 300 138 346 346 346 36 36 36
 356 193 193 193 193 148 38 38 225 225 225 225 199 199 199 79 79 79 79 300
 300 300 300 346 346 346 346 346 356 356 356 356 189 189 189 189 38 38 225 225
 225 225 199 199 199 199 79 79 226 226 300 300 300 346 346 346 346 346 356 356
 356 189 189 189 189 176 176 176 225 225 225 225 199 199 199 199 234 234 226 226
 226 300 300 346 346 346 346 346 356 356 129 189 189 189 189 176 176 176 176 225
 225 225 199 199 199 22 234 234 226 226 226 226 215 215 346 346 346 346 129 309
 309 2 389 389 389 389 176 176 176 176 221 221 221 221 22 22 395 395 226 226
 226 226 215 215 215 215 346 309 309 309 309 307 389 389 389 389 389 176 176 176
 221 221 221 22 22 22 395 395 395 226 226 215 215 215 215 215 215 309 309 309
 309 307 389 389 389 389 389 30 30 30 221 221 221 221 22 22 8 8 8 226
 259 215 215 215 215 215 140 140 309 309 307 240 389 389 389 389 30 30 30 30
 30 221 221 221 22 22 8 8 8 259 259 215 215 215 215 215 140 140 140 307
 240 240 240 17 389 30 30 30 30 30 30 30 221 221 369 8 8 8 8 259
 259 259 51 51 51 40 140 140 140 240 240 240 240 17 17 30 30 30 30 30
 30 30 30 369 369 369 8 273 8 259 259 259 51 51 51 40 40 295 295 240
 295 240 240 17 17 30 30 30 30 30 30 30 222 369 369 369 273 273 273 273
 336 336 51 51 51 40 40 295 295 295 295 295 240 17 150 150 30 30 30 30
 30 115 222 222 369 369 273 273 273 273 336 336 336 51 51 51 255 295 295 295
 295 295 332 150 150 150 30 30 115 115 115 115 222 222 222 369 273 273 273 273
 336 336 336 51 290 290 255 255 295 295 295 295 332 332 150 150 115 115 115 115
 115 115 222 222 222 347 347 273 12 12 12 12 12 190 290 290 255 255 255 295
 103 103 103 103 103 88 88 88 115 115 115 222 222 222 222 347 347 12 12 12
 12 12 190 190 290 290 290 255 255 255 103 103 103 103 103 88 88 88 88 115
 115 222 222 222 347 347 347 12 12 12 12 12 190 190 190 290 97 97 97 97
 103 103 103 103 103 88 88 88 88 115 343 343 222 347 347 347 347 12 12 12
 94 94 190 190 190 97 97 97 97 97 103 103 103 103 103 88 88 88 266 278
 343 343 301 347 333 71 71 71 94 94 94 94 94 190 97 97 97 97 97 97
 184 184 327 327 327 327 400 400 146 113 113 113 113 113 333 71 142 142 142 94
 94 94 382 382 289 289 97 97 97 97 184 184 327 327 327 162 400 400 146 146
 113 113 113 113 173 142 142 142 142 142 382 382 382 382 289 289 289 289 289 97
 184 184 327 327 327 162 162 400 146 146 146 113 113 113 173 142 142 142 142 382
 382 382 382 382 289 289 289 289 289 289 252 184 327 327 327 162 162 162 146 146
 146 113 180 180 173 173 110 110 110 382 382 382 382 382 289 289 289 289 289 252
 252 123 123 50 162 162 162 162 146 146 146 180 180 180 180 173 110 299 299 299
 382 382 382 382 289 289 289 289 252 252 252 123 123 123 50 162 368 368 146 146
 146 180 180 180 180 180 299 299 299 299 299 382 382 382 289 289 289 289 252 252
 123 123 123 123 50 368 368 368 368 212 212 180 180 180 180 180 79 299 299 58
 58 382 382 382 289 289 289 289 123 123 123 123 123 123 148 368 368 368 368 368
 392 392 180 180 180 79 79 79 58 58 58 58 76 76 76 289 36 36 36 123
 123 123 123 123 148 148 368 368 368 368 392 392 392 392 79 79 79 79 79 58
 58 138 138 138 138 36 36 36 36 123 123 123 123 123 148 148 148 368 368 392
 392 392 392 392 79 79 79 79 79 79 79 138 138 138 138 36 36 36 36 123
 123 123 123 193 148 148 148 148 225 392 392 392 392 392 44 79 79 79 79 79
 79 138 138 138 138 36 36 36 36 36 193 193 193 193 148 148 148 225 225 225
 225 392 392 44 44 44 79 79 79 79 300 300 300 315 315 346 346 36 36 36
 356 193 193 193 193 38 38 38 225 225 225 225 199 199 44 44 79 79 79 300
 300 300 300 315 346 346 346 346 356 356 356 356 189 189 189 38 38 38 225 225
 225 225 199 199 199 199 234 234 226 300 300 300 300 300 346 346 346 346 356 356
 356 189 189 189 189 38 38 38 225 225 225 225 199 199 199 234 234 234 234 226
 300 300 300 300 346 346 346 346 356 356 309 189 189 189 189 176 176 176 176 225
 225 225 199 199 199 234 234 234 234 226 226 300 300 300 346 346 346 346 309 309
 309 309 389 389 389 389 176 176 176 176 221 221 221 221 22 395 395 395 395 226
 226 99 215 215 215 215 346 309 309 309 309 309 389 389 389 389 389 377 176 176
 221 221 221 22 22 395 395 395 395 226 99 99 215 215 215 215 309 309 309 309
 309 309 389 389 389 389 389 30 30 30 221 221 221 221 22 395 395 395 395 99
 99 99 99 215 215 215 140 309 309 309 240 240 240 389 389 389 30 30 30 30
 30 221 221 221 22 22 8 8 8 19 99 99 99 215 215 51 28 28 28 309
 240 240 240 240 387 30 30 30 30 30 30 30 221 222 369 8 8 8 8 19
 19 51 51 51 51 51 28 28 28 240 240 240 240 240 387 30 30 30 30 30
 30 30 222 222 369 369 8 273 121 121 336 51 51 51 51 51 40 28 295 240
 240 240 240 240 150 150 150 30 30 30 30 30 222 222 369 369 273 273 273 336
 336 336 51 51 51 51 40 295 295 240 295 240 240 240 150 150 150 30 30 115
 115 222 222 222 222 222 273 273 273 336 336 336 336 51 51 51 51 295 295 91
 295 295 240 150 150 150 150 30 115 115 115 222 222 222 222 222 273 273 273 336
 336 336 336 51 290 290 290 255 295 295 295 295 332 150 150 150 150 115 115 115
 115 222 222 222 222 222 347 26 12 12 12 119 119 51 290 290 290 255 255 295
 103 103 103 103 103 88 88 88 115 115 266 222 222 222 222 347 26 26 26 119
 119 119 119 127 290 290 127 127 127 208 103 103 103 103 103 88 88 88 266 266
 266 266 222 222 222 347 26 26 94 94 94 94 127 127 127 127 127 127 127 208
 103 103 103 103 103 88 88 88 266 266 266 266 266 266 347 71 71 71 94 94
 94 94 127 127 127 127 97 97 97 97 103 103 103 103 370 370 88 266 266 266
 266 266 266 266 71 71 71 71 94 94 94 94 94 127 127 127 97 97 97 97
 184 184 184 327 327 327 400 266 266 113 113 113 113 113 71 71 71 71 71 94
 94 94 94 289 289 289 97 97 97 97 184 184 184 327 327 327 400 146 146 113
 113 113 113 113 113 71 71 142 71 94 94 94 382 289 289 289 289 289 289 184
 184 184 184 327 327 327 162 146 146 146 113 113 113 113 227 227 71 142 142 382
 382 382 382 289 289 289 289 289 289 184 184 184 184 327 327 162 162 146 146 146
 146 113 113 113 227 227 227 299 299 299 299 382 382 289 289 289 289 289 289 289
 123 123 123 123 246 246 246 246 146 146 146 113 180 180 227 227 227 299 299 299
 299 299 382 289 289 289 289 289 289 252 123 123 123 123 246 246 246 246 246 146
 146 179 179 179 179 179 227 299 299 299 299 299 382 289 289 289 289 289 289 123
 123 123 123 123 246 246 246 246 246 401 401 179 179 179 179 179 179 299 299 299
 299 299 76 76 289 289 289 289 123 123 123 123 123 123 246 246 246 246 246 401
 401 179 179 179 179 179 79 299 299 58 58 299 76 76 76 289 289 36 123 123
 123 123 123 123 104 104 246 246 246 401 392 392 392 179 179 179 79 79 79 58
 58 138 76 76 76 36 36 36 123 123 123 123 123 123 104 104 104 246 246 392
 392 392 44 44 44 44 44 79 79 79 79 315 315 315 315 315 36 253 253 123
 123 123 123 123 104 104 104 104 225 225 392 392 44 44 44 44 44 79 79 79
 315 315 315 315 315 315 36 253 253 253 123 123 123 123 104 104 104 225 225 225
 225 225 44 44 44 44 44 355 355 355 300 315 315 315 315 315 253 253 253 253
 356 123 193 193 104 38 38 38 225 225 225 225 67 67 44 44 44 355 355 300
 300 300 315 315 315 315 312 312 312 312 356 356 189 189 101 38 38 38 225 225
 225 225 67 67 67 44 303 303 303 300 300 300 300 315 315 315 312 312 312 312
 356 9 189 189 101 101 38 38 225 225 225 225 67 67 67 303 303 303 303 303
 300 300 300 300 90 90 312 312 312 312 309 309 9 189 101 101 101 101 225 225
 225 225 67 67 67 303 303 303 303 303 300 300 300 300 90 90 90 90 312 309
 309 309 389 389 389 101 377 377 377 225 225 225 221 67 303 303 303 303 303 303
 99 99 99 99 90 90 90 309 309 309 309 309 389 389 389 389 377 377 377 377
 221 221 221 394 394 303 395 395 395 99 99 99 99 99 215 90 90 309 309 309
 309 249 249 387 387 389 377 377 377 377 221 221 221 394 394 395 395 395 395 99
 99 99 99 99 215 28 28 28 309 309 240 240 240 387 387 387 30 30 30 30
 30 221 221 394 394 395 395 19 19 19 99 99 99 99 51 28 28 28 28 309
 240 240 240 387 387 387 30 30 30 30 206 206 114 114 114 8 19 19 19 19
 19 99 51 51 51 51 28 28 28 240 240 240 240 387 387 387 30 30 30 30
 279 279 114 114 114 114 121 121 121 121 121 121 51 51 51 51 28 28 91 240
 240 240 240 387 387 65 65 65 279 279 279 279 114 222 114 114 121 121 121 121
 121 336 51 51 51 51 51 91 91 91 91 240 240 387 65 65 65 65 279 279
 279 279 222 222 222 222 26 121 121 121 336 336 51 51 51 51 51 91 91 91
 91 91 240 387 65 65 65 65 279 279 279 222 222 222 222 222 26 26 26 121
 119 119 119 51 290 290 290 91 91 91 91 91 151 151 65 65 65 115 115 115
 115 222 222 222 222 222 26 26 26 119 119 119 119 119 290 290 290 91 91 91
 208 370 370 370 370 370 88 88 266 266 266 266 222 80 80 80 26 26 26 119
 119 119 119 127 127 127 127 127 127 208 208 370 370 370 370 370 88 266 266 266
 266 266 266 266 80 26 26 26 94 94 94 119 127 127 127 127 127 127 208 208
 208 370 370 370 370 370 88 266 266 266 266 266 266 266 266 71 71 71 94 94
 94 94 127 127 127 127 127 127 127 208 370 370 370 370 370 370 370 266 266 266
 266 266 266 266 71 71 71 71 94 94 94 94 127 127 127 127 127 97 97 97
 184 184 184 370 370 370 370 266 266 266 113 113 113 113 71 71 71 71 71 94
 94 94 94 289 289 289 289 97 97 184 184 184 184 184 370 370 370 266 266 113
 113 113 113 113 71 71 71 71 71 94 94 94 289 289 289 289 289 289 289 184
 184 184 184 184 327 327 216 216 146 113 113 113 113 113 227 227 71 71 71 71
 94 382 289 289 289 289 289 289 289 184 184 184 184 184 246 246 246 246 146 113
 113 113 113 201 227 227 227 299 299 299 299 299 289 289 289 289 289 289 289 289
 123 123 123 123 246 246 246 246 246 146 146 201 201 201 227 227 227 299 299 299
 299 299 289 289 289 289 289 289 289 123 123 123 123 123 246 246 246 246 246 246
 146 201 201 179 179 179 227 299 299 299 299 299 299 289 289 289 289 289 123 123
 123 123 123 123 246 246 246 246 246 401 401 179 179 179 179 179 179 299 299 299
 299 299 76 76 289 289 289 289 123 123 123 123 123 123 246 246 246 246 246 401
 401 401 179 179 179 179 179 299 299 299 299 299 76 76 76 289 289 289 123 123
 123 123 123 123 246 104 246 246 246 401 401 401 179 179 179 44 44 229 229 229
 299 111 111 76 76 76 36 123 123 123 123 123 123 123 104 104 104 246 246 401
 15 44 44 44 44 44 44 355 229 229 229 315 315 315 315 315 253 253 253 253
 123 123 123 123 104 104 104 246 246 15 15 15 44 44 44 44 44 355 355 355
 355 315 315 315 315 315 253 253 253 253 123 123 123 123 104 104 104 225 225 225
 15 15 44 44 44 44 44 355 355 355 355 315 315 315 315 315 253 253 253 253
 123 123 123 101 101 101 101 38 225 225 225 225 67 67 44 44 355 355 355 355
 300 315 315 315 315 315 312 312 312 312 9 9 9 101 101 101 101 101 225 225
 225 225 67 67 67 44 303 303 303 300 300 300 315 315 315 90 312 312 312 312
 9 9 9 101 101 101 101 101 225 225 225 225 67 67 67 303 303 303 303 303
 300 300 300 90 90 90 90 312 312 312 309 9 9 9 101 101 101 101 101 225
 225 225 67 67 67 303 303 303 303 303 99 99 99 90 90 90 90 90 90 309
 309 249 9 101 101 101 377 377 377 377 409 409 409 394 394 303 303 303 303 303
 99 99 99 99 90 90 90 90 90 309 249 249 249 249 101 101 377 377 377 377
 409 409 409 394 394 394 303 303 303 99 99 99 99 99 90 90 90 90 309 309
 249 249 249 387 387 387 377 377 377 377 409 409 409 394 394 394 394 19 19 19
 99 99 99 99 99 28 28 28 28 249 249 249 249 387 387 387 377 377 206 206
 206 206 409 394 394 394 19 19 19 19 19 99 99 99 177 28 28 28 28 249
 249 249 387 387 387 387 387 206 206 206 206 206 114 114 114 394 19 19 19 19
 19 121 177 177 177 28 28 28 28 249 240 240 387 387 387 387 65 206 206 206
 206 114 114 114 114 114 121 121 121 121 121 121 177 177 51 51 28 91 91 91
 91 240 387 387 387 65 65 65 279 279 279 114 114 114 114 114 121 121 121 121
 121 121 177 51 51 51 51 91 91 91 91 91 151 151 65 65 65 65 279 279
 279 114 114 114 114 114 121 121 121 121 121 121 119 51 51 51 91 91 91 91
 91 91 151 151 65 65 65 65 279 279 279 279 80 80 80 26 26 26 26 121
 119 119 119 119 127 127 127 91 91 91 91 91 151 151 65 65 65 65 279 279
 279 80 80 80 80 26 26 26 26 119 119 119 119 119 127 127 127 127 91 91
 208 208 370 370 370 370 185 185 185 185 266 266 80 80 80 80 26 26 26 119
 119 119 119 127 127 127 127 127 208 208 208 370 370 370 370 370 370 185 266 266
 266 266 266 80 80 80 26 26 94 94 94 119 127 127 127 127 127 127 208 208
 208 370 370 370 370 370 370 266 266 266 266 266 266 266 80 71 71 71 94 94
 94 94 127 127 127 127 127 127 208 208 370 370 370 370 370 370 370 266 266 266
 266 266 266 266 266 71 71 71 94 94 94 94 127 127 127 127 127 127 127 208
 184 184 370 370 370 370 370 266 266 266 266 113 113 113 71 71 71 71 71 94
 94 94 127 127 127 127 127 127 127 184 184 184 184 370 370 370 370 266 266 113
 113 113 113 113 201 71 71 71 71 94 94 94 289 289 289 289 289 289 289 184
 184 184 184 184 370 370 216 216 216 113 113 113 113 201 201 227 71 71 71 71
 94 289 289 289 289 289 289 289 396 396 396 396 184 184 246 246 216 216 216 216
 113 201 201 201 201 227 227 299 299 299 299 299 289 289 289 289 289 289 396 396
 396 123 123 123 246 246 246 216 216 216 201 201 201 201 201 201 227 299 299 299
 299 299 289 289 289 289 289 289 396 396 123 123 123 123 246 246 246 246 246 401
 201 201 201 201 201 201 201 299 299 299 299 299 111 289 289 289 289 289 396 123
 123 123 123 123 246 246 246 246 401 401 401 201 201 179 179 179 179 299 299 299
 299 299 111 111 111 289 289 289 123 123 123 123 123 123 246 246 246 246 401 401
 401 401 179 179 179 179 179 299 299 299 299 111 111 111 111 111 289 123 123 123
 123 123 123 123 246 246 246 246 401 401 401 401 179 179 179 44 44 229 229 229
 299 111 111 111 111 111 111 244 244 123 123 123 123 123 104 104 104 246 401 401
 15 15 44 44 44 44 44 355 229 229 229 315 315 315 315 315 253 253 253 253
 123 123 123 123 104 104 104 246 15 15 15 15 44 44 44 44 355 355 355 355
 33 33 315 315 315 315 253 253 253 253 123 123 123 123 104 104 104 246 15 15
 15 15 44 44 44 44 355 355 355 355 33 33 315 315 315 315 253 253 253 253
 123 123 9 101 101 101 101 101 225 15 15 15 44 44 44 44 355 355 355 355
 33 33 315 315 315 315 253 312 312 253 9 9 9 101 101 101 101 101 101 225
 225 15 67 67 67 44 355 355 355 355 300 300 315 315 90 90 90 312 312 312
 9 9 9 9 101 101 101 101 101 225 225 67 67 67 67 303 303 303 303 303
 303 300 90 90 90 90 90 90 312 312 9 9 9 9 101 101 101 101 101 101
 409 409 67 67 67 303 303 303 303 303 99 99 99 90 90 90 90 90 90 90
 249 249 9 9 101 101 101 101 101 101 409 409 409 394 394 303 303 303 303 99
 99 99 99 90 90 90 90 90 90 90 249 249 249 249 101 101 377 377 377 377
 409 409 409 394 394 394 394 303 19 19 99 99 99 99 90 90 90 90 90 249
 249 249 249 249 387 387 377 377 377 206 409 409 409 394 394 394 394 19 19 19
 19 99 99 99 90 90 28 28 28 249 249 249 249 387 387 387 206 206 206 206
 206 206 409 394 394 394 19 19 19 19 19 19 177 177 177 28 28 28 28 249
 249 249 387 387 387 387 206 206 206 206 206 206 206 394 394 394 19 19 19 19
 19 19 177 177 177 177 28 28 28 249 249 249 387 387 387 387 206 206 206 206
 206 206 114 114 114 121 121 121 121 121 121 121 177 177 177 177 28 91 91 91
 91 151 151 151 387 65 65 206 206 279 206 114 114 114 114 114 121 121 121 121
 121 121 177 177 177 177 177 91 91 91 91 151 151 151 151 65 65 65 279 279
 279 114 114 114 80 80 121 121 121 121 121 121 121 177 177 177 91 91 91 91
 91 151 151 151 151 65 65 65 279 279 279 80 80 80 80 80 26 26 121 121
 121 119 119 127 127 127 127 127 91 91 91 151 151 151 151 65 65 185 185 185
 185 80 80 80 80 80 26 26 26 121 119 119 119 127 127 127 127 127 127 91
 208 208 370 370 370 370 185 185 185 185 185 266 80 80 80 80 26 26 26 94
 119 119 127 127 127 127 127 127 208 208 208 370 370 370 370 370 370 185 185 185
 266 266 266 80 80 80 256 71 94 94 94 127 127 127 127 127 127 127 208 208
 208 370 370 370 370 370 370 185 266 266 266 266 266 266 256 256 256 71 94 94
 94 94 127 127 127 127 127 127 127 208 158 370 370 370 370 370 370 266 266 266
 266 266 266 266 256 256 71 71 94 94 94 94 127 127 127 127 127 127 127 208
 158 370 370 370 370 370 370 266 266 266 266 266 266 266 256 256 71 71 71 94
 94 302 127 127 127 127 127 127 127 396 184 184 370 370 370 370 370 216 266 266
 113 113 113 201 201 256 71 71 71 112 112 112 289 289 289 289 289 289 396 396
 396 184 184 370 370 370 216 216 216 216 113 113 201 201 201 201 71 71 71 112
 112 112 289 289 289 289 289 289 396 396 396 396 184 349 246 246 216 216 216 216
 201 201 201 201 201 201 201 71 299 299 299 134 134 289 289 289 289 396 396 396
 396 396 123 246 246 246 246 216 216 216 201 201 201 201 201 201 201 299 299 299
 299 299 289 289 289 289 289 289 396 396 123 123 123 246 246 246 246 246 216 401
 201 201 201 201 201 201 201 299 299 299 299 299 111 111 289 289 289 289 396 396
 123 123 123 246 246 246 246 246 401 401 401 201 201 201 201 201 201 299 299 299
 299 111 111 111 111 111 289 289 244 123 123 123 123 123 246 246 246 246 401 401
 401 401 201 201 201 201 201 229 229 260 260 111 111 111 111 111 111 244 244 244
 244 123 123 123 246 246 246 246 401 401 401 401 201 44 44 44 44 229 229 229
 260 260 111 111 111 111 111 244 244 244 244 244 123 123 311 311 311 246 401 401
 15 15 44 44 44 44 355 355 229 229 260 260 111 111 111 111 244 244 244 244
 244 244 123 123 311 311 311 246 401 15 15 15 44 44 44 44 355 355 355 355
 33 33 33 315 315 315 253 253 253 253 244 244 123 123 311 311 101 101 15 15
 15 15 44 44 44 44 355 355 355 355 33 33 33 315 315 315 253 253 253 253
 244 244 9 101 101 101 101 101 101 15 15 15 44 44 44 355 355 355 355 355
 33 33 33 315 315 90 253 253 253 253 141 9 9 101 101 101 101 101 101 403
 403 15 67 67 44 355 355 355 355 355 33 33 90 90 90 90 90 90 90 141
 141 9 9 9 101 101 101 101 101 403 403 403 67 67 67 303 303 303 303 303
 139 90 90 90 90 90 90 90 90 141 141 9 9 9 101 101 101 101 101 403
 403 403 409 67 394 303 303 303 303 303 99 99 90 90 90 90 90 90 90 141
 249 249 9 101 101 101 101 101 101 101 409 409 409 394 394 394 303 303 303 99
 99 99 99 90 90 90 90 90 90 141 249 249 249 249 101 101 101 101 101 376
 409 409 409 394 394 394 394 19 19 19 19 99 99 90 90 90 90 90 90 249
 249 249 249 249 387 101 101 206 206 206 409 409 409 394 394 394 394 19 19 19
 19 19 99 99 90 90 90 28 28 249 249 249 249 249 387 387 206 206 206 206
 206 206 409 394 394 394 394 19 19 19 19 19 177 177 177 177 28 78 78 249
 249 249 249 387 387 387 206 206 206 206 206 206 206 394 394 394 394 19 19 19
 19 19 177 177 177 177 28 78 78 249 249 249 387 387 387 387 206 206 206 206
 206 206 114 114 114 285 121 121 121 121 121 121 177 177 177 177 177 78 186 249
 186 151 151 151 151 151 206 206 206 206 206 114 114 114 114 285 121 121 121 121
 121 178 177 177 177 177 177 186 186 186 186 151 151 151 151 151 354 354 354 206
 206 114 114 114 80 285 121 121 121 121 121 178 178 177 177 177 127 186 186 186
 186 151 151 151 151 151 354 354 185 185 185 80 80 80 80 80 121 121 121 121
 178 178 178 178 127 127 127 127 186 186 186 151 151 151 151 151 151 185 185 185
 185 80 80 80 80 80 26 121 121 121 178 178 178 127 127 127 127 127 127 186
 208 158 370 296 296 296 296 185 185 185 185 185 80 80 80 80 256 256 178 178
 178 178 127 127 127 127 127 127 127 208 208 158 370 370 296 296 296 185 185 185
 185 185 80 80 256 256 256 256 256 94 178 178 127 127 127 127 127 127 127 208
 158 158 370 370 370 296 296 185 185 185 266 266 266 256 256 256 256 256 256 94
 302 302 127 127 127 127 127 127 127 158 158 158 370 370 370 370 370 266 266 266
 266 266 266 256 256 256 256 256 256 112 302 302 127 127 127 127 127 127 127 158
 158 158 370 370 370 370 370 266 266 266 266 266 266 256 256 256 256 256 112 112
 112 302 127 127 127 127 127 127 127 158 158 158 370 370 370 370 370 216 266 266
 266 201 201 201 256 256 256 112 112 112 112 112 134 134 289 289 289 127 396 396
 396 184 184 349 349 370 216 216 216 216 201 201 201 201 201 201 201 112 112 112
 112 112 134 134 134 289 289 396 396 396 396 396 349 349 349 349 349 216 216 216
 201 201 201 201 201 201 201 201 112 112 112 134 134 134 134 289 289 396 396 396
 396 396 349 349 349 349 246 216 216 216 201 201 201 201 201 201 201 201 299 299
 299 134 134 134 134 289 289 289 396 396 123 123 123 349 349 246 246 246 216 401
 201 201 201 201 201 201 201 299 299 260 260 260 111 111 289 289 289 46 396 396
 244 123 123 246 246 246 246 251 401 401 401 201 201 201 201 201 201 59 260 260
 260 260 111 111 111 111 111 244 244 244 244 244 123 246 246 246 246 251 401 401