# vtk DataFile Version 2.0
Data set from IO Version 6.4.197.9a0dee2
ASCII

DATASET RECTILINEAR_GRID
DIMENSIONS 31 31 31
X_COORDINATES 31 float
-5.500000 5.500000 16.500000 27.500000 38.500000 49.500000 60.500000 71.500000 82.500000 93.500000 104.500000 115.500000 126.500000 137.500000 148.500000 159.500000 170.500000 181.500000 192.500000 203.500000 214.500000 
225.500000 236.500000 247.500000 258.500000 269.500000 280.500000 291.500000 302.500000 313.500000 324.500000 
Y_COORDINATES 31 float
-5.500000 5.500000 16.500000 27.500000 38.500000 49.500000 60.500000 71.500000 82.500000 93.500000 104.500000 115.500000 126.500000 137.500000 148.500000 159.500000 170.500000 181.500000 192.500000 203.500000 214.500000 
225.500000 236.500000 247.500000 258.500000 269.500000 280.500000 291.500000 302.500000 313.500000 324.500000 
Z_COORDINATES 31 float
-5.500000 5.500000 16.500000 27.500000 38.500000 49.500000 60.500000 71.500000 82.500000 93.500000 104.500000 115.500000 126.500000 137.500000 148.500000 159.500000 170.500000 181.500000 192.500000 203.500000 214.500000 
225.500000 236.500000 247.500000 258.500000 269.500000 280.500000 291.500000 302.500000 313.500000 324.500000 
CELL_DATA 27000
SCALARS FeatureIds int 1
LOOKUP_TABLE default
 45 45 45 45 45 45 182 182 182 247 247 52 52 52 52 186 186 186 186 16
 16 176 176 176 176 176 176 280 280 280 45 45 45 45 45 45 182 182 182 247
 247 247 52 52 52 186 186 186 186 186 46 176 176 176 176 176 176 280 280 280
 45 45 45 45 45 45 182 182 182 247 247 247 52 52 52 186 186 186 186 46
 46 46 176 176 176 162 162 162 280 280 374 45 45 45 45 117 117 182 247 247
 247 247 52 52 52 186 186 186 186 46 46 46 46 46 162 162 162 162 374 374
 374 374 48 45 117 117 117 117 76 76 76 207 207 207 207 186 186 186 273 273
 46 46 46 46 162 162 162 162 374 374 374 48 48 48 117 117 117 117 76 76
 76 76 207 207 318 260 260 260 273 273 273 46 46 46 162 162 162 374 374 374
 374 48 48 48 48 117 117 194 76 76 76 76 318 318 318 260 260 260 260 203
 203 203 150 150 150 150 170 170 374 374 374 48 48 48 48 194 194 194 194 76
 76 76 318 318 318 260 260 260 203 203 203 203 150 150 150 150 170 170 170 374
 48 48 48 48 48 194 194 194 194 194 350 350 350 318 318 260 260 260 203 203
 203 203 150 150 150 150 170 170 170 342 349 349 349 48 48 194 194 194 194 194
 350 350 350 350 318 260 260 260 380 380 380 337 337 150 150 150 150 170 342 342
 349 349 349 153 153 194 194 194 194 194 350 350 350 350 238 238 238 380 380 380
 380 380 337 150 150 150 150 9 342 349 349 349 349 153 153 153 194 194 194 194
 350 350 350 350 238 238 238 380 380 380 380 380 240 240 240 240 240 9 349 349
 349 349 349 153 153 28 28 28 28 28 350 350 284 284 238 238 238 380 380 380
 380 380 240 240 240 240 240 240 349 349 349 349 349 153 153 28 28 28 28 28
 28 284 284 284 284 6 6 380 380 380 380 240 240 240 240 240 240 42 42 349
 279 279 279 279 153 28 28 28 28 28 28 192 284 284 6 6 6 6 380 380
 380 240 240 240 240 240 240 42 42 42 279 279 279 279 81 81 28 28 28 28
 192 192 192 192 6 6 6 75 75 75 363 363 363 363 363 240 42 42 42 42
 42 279 279 81 81 81 81 28 377 377 192 192 192 192 192 6 75 75 75 75
 3 363 363 363 363 363 42 42 42 42 42 279 279 81 81 81 81 81 377 377
 218 192 192 192 192 50 50 50 50 50 3 3 363 363 363 402 402 42 42 42
 64 279 5 5 5 81 81 81 377 218 218 218 192 192 192 50 50 50 50 50
 50 27 27 402 402 402 402 402 64 64 64 64 5 5 5 81 313 313 341 341
 341 192 192 192 192 50 50 50 50 50 50 27 27 402 402 402 402 64 64 64
 133 133 5 5 5 5 313 313 341 341 341 341 192 192 258 258 258 258 50 50
 59 59 59 59 402 402 402 133 133 133 133 133 407 5 5 313 313 313 341 341
 341 341 341 231 220 220 258 258 258 59 59 59 59 59 59 402 402 133 133 133
 133 133 407 173 173 173 313 313 341 341 341 341 231 231 231 220 258 258 258 59
 59 59 59 59 59 59 133 133 133 133 133 281 281 173 173 173 312 312 312 341
 38 38 231 231 231 231 258 258 59 59 59 59 59 59 59 61 61 61 61 133
 281 281 281 281 173 173 173 312 312 38 38 38 38 231 231 231 231 59 59 59
 59 59 59 59 59 61 61 61 61 61 281 281 281 281 265 265 265 265 265 38
 38 38 38 38 231 210 210 59 59 59 59 59 59 59 59 61 61 61 61 61
 281 281 281 281 265 265 265 265 265 38 38 373 373 373 210 210 210 59 59 59
 59 59 59 59 256 256 61 61 61 61 391 391 391 281 265 265 265 265 265 373
 373 373 373 373 210 210 210 210 16 16 59 59 59 256 256 256 256 61 61 391
 391 391 391 391 265 265 265 265 265 373 373 373 373 373 210 210 210 16 16 16
 16 16 176 256 256 256 256 280 280 280 280 391 45 45 45 265 265 265 265 373
 373 373 373 373 210 210 186 186 16 16 16 176 176 176 176 176 256 280 280 280
 345 345 45 45 45 45 182 182 182 182 247 52 52 52 52 186 186 186 186 234
 234 176 176 176 176 176 176 280 280 280 345 45 45 45 45 45 182 182 182 247
 247 247 52 52 52 186 186 186 186 186 46 176 176 176 176 176 103 103 280 280
 345 45 45 45 45 45 182 182 182 247 247 247 52 52 52 186 186 186 186 46
 46 46 176 176 176 176 162 103 103 103 374 217 45 45 45 117 182 182 247 247
 247 247 52 52 52 186 186 186 186 46 46 46 46 176 176 162 321 321 374 12
 374 374 48 48 117 117 117 117 247 247 247 247 207 207 318 186 186 242 242 46
 46 46 46 46 321 321 321 321 374 12 374 48 48 48 48 117 117 117 76 76
 76 76 318 318 318 260 260 260 242 242 46 46 46 321 321 321 321 321 12 12
 374 48 48 48 48 48 194 194 76 76 76 76 318 318 318 260 260 260 260 203
 203 203 150 150 150 321 321 321 374 12 9 48 48 48 48 48 194 194 194 76
 76 318 318 318 318 260 260 260 260 203 203 203 150 150 150 150 150 170 9 9
 9 48 48 48 48 194 194 194 194 194 350 350 318 318 318 260 260 260 260 203
 203 203 150 150 150 150 150 9 9 9 9 349 349 48 48 194 194 194 194 194
 350 350 350 318 318 260 260 260 380 380 380 380 150 150 150 150 150 9 9 9
 349 349 349 153 153 194 194 194 194 194 350 350 350 350 238 238 238 380 380 380
 380 380 337 150 150 150 150 9 9 9 349 349 349 349 153 194 194 194 194 194
 350 350 350 238 238 238 238 380 380 380 380 380 240 240 240 240 303 9 9 349
 349 349 349 349 153 28 28 28 28 28 350 85 85 284 238 238 238 380 380 380
 380 380 240 240 240 240 240 303 9 349 349 349 349 349 153 28 28 28 28 28
 28 85 284 284 284 85 6 380 380 380 380 240 240 240 240 240 240 303 42 349
 279 279 279 279 279 28 28 28 28 28 28 85 85 284 85 85 75 75 75 75
 75 240 240 240 240 240 240 42 42 42 279 279 279 279 81 81 28 28 28 28
 218 192 85 85 85 85 75 75 75 75 75 240 240 240 240 240 42 42 42 42
 279 279 279 279 81 51 81 28 377 377 218 192 192 192 296 296 75 75 75 75
 3 3 363 363 363 125 42 42 42 42 279 279 279 5 5 51 51 377 377 377
 218 218 192 296 296 296 75 75 75 75 3 3 3 363 302 125 125 42 42 42
 64 64 5 5 5 51 81 377 377 377 218 218 192 296 296 50 50 50 50 75
 3 3 3 302 402 402 402 64 64 64 64 64 5 5 5 5 313 313 313 341
 218 218 192 296 296 50 50 50 50 50 59 27 59 59 402 402 402 64 64 64
 64 64 5 5 5 313 313 313 313 341 341 341 11 11 201 258 258 258 258 59
 59 59 59 59 59 402 402 64 64 64 133 133 5 5 5 313 313 313 313 341
 341 11 11 11 201 220 258 258 258 59 59 59 59 59 59 59 402 133 133 133
 133 133 281 5 173 173 313 313 313 341 341 341 11 231 231 258 258 258 258 59
 59 59 59 59 59 59 61 133 133 133 281 281 281 281 173 173 173 313 313 38
 38 38 38 231 231 231 258 258 59 59 59 59 59 59 59 61 61 61 61 61
 281 281 281 281 173 173 173 312 312 38 38 38 38 38 231 231 258 258 59 59
 59 59 59 59 59 61 61 61 61 61 281 281 281 281 173 173 265 265 265 38
 38 38 38 38 38 210 210 59 59 59 59 59 59 59 59 61 61 61 61 61
 281 281 281 281 265 265 265 265 265 38 38 38 38 38 210 210 210 17 17 17
 59 59 59 59 256 256 61 61 61 61 281 281 281 281 265 265 265 265 265 38
 38 38 38 38 210 210 210 210 17 17 17 59 59 256 256 256 256 61 61 61
 345 345 345 345 265 265 265 265 265 373 373 373 373 373 210 210 210 210 234 234
 234 234 176 256 256 256 256 280 280 280 345 345 345 45 45 265 265 265 265 373
 373 373 373 52 210 210 186 186 234 234 234 176 176 176 176 176 256 280 280 280
 345 345 345 345 45 182 182 182 182 247 247 52 52 52 52 186 186 186 186 226
 226 176 176 176 176 176 103 103 103 345 345 345 345 345 45 182 182 182 182 247
 247 247 52 52 52 186 186 186 186 186 46 176 176 176 176 176 103 103 103 103
 345 345 345 45 266 266 182 182 247 247 247 247 52 52 52 186 186 186 186 46
 46 46 176 176 176 176 103 103 103 103 12 217 217 45 266 266 266 182 247 247
 247 247 52 52 52 186 186 186 242 46 46 46 46 176 321 321 321 321 103 12
 12 12 48 48 48 117 266 266 247 247 247 84 84 84 318 130 186 242 242 242
 46 46 46 321 321 321 321 321 12 12 12 48 48 48 48 48 117 194 76 84
 84 84 84 318 318 260 260 242 242 242 242 46 46 321 321 321 321 321 12 12
 12 48 48 48 48 48 194 194 194 84 84 84 84 318 318 260 260 260 242 242
 242 242 46 321 321 321 321 321 12 12 9 48 48 48 48 48 194 194 194 194
 76 318 318 318 318 260 260 260 260 242 242 242 150 150 150 150 321 321 9 9
 9 9 48 48 48 194 194 194 194 194 202 202 318 318 318 260 260 260 260 260
 203 372 150 150 150 150 150 9 9 9 9 9 349 48 48 194 194 194 194 194
 202 202 202 318 318 260 260 260 380 380 380 372 372 150 150 150 150 9 9 9
 9 349 349 349 194 194 194 194 194 194 202 202 202 318 238 238 238 380 380 380
 380 380 372 372 372 150 303 9 9 9 349 349 349 349 194 194 194 194 194 194
 202 85 85 85 238 238 238 380 380 380 380 380 372 372 240 303 303 303 9 9
 349 349 349 349 153 28 219 219 219 194 85 85 85 85 85 238 238 380 380 380
 380 380 240 240 240 303 303 303 303 349 349 349 349 349 153 28 219 219 219 28
 85 85 85 85 85 85 75 75 380 380 380 240 240 240 240 303 303 303 303 349
 279 279 279 279 279 219 219 219 219 28 85 85 85 85 85 85 75 75 75 75
 75 240 240 240 240 303 303 303 303 42 279 279 279 279 279 51 219 219 219 377
 85 85 85 85 85 85 75 75 75 75 75 3 240 240 240 303 303 303 42 279
 279 359 359 279 51 51 51 51 377 377 218 192 296 296 296 296 75 75 75 75
 3 3 3 363 125 125 125 315 42 42 279 359 359 51 51 51 51 51 377 377
 218 218 296 296 296 296 75 75 75 75 3 3 3 302 302 125 125 125 64 64
 64 359 5 5 51 51 51 51 377 377 218 218 296 296 296 296 75 75 75 75
 3 3 3 302 302 302 302 64 64 64 64 64 5 5 5 51 313 313 313 341
 218 218 296 296 296 201 258 50 50 75 3 3 302 302 302 302 302 64 64 64
 64 64 5 5 5 313 313 313 313 341 11 11 11 11 201 201 258 258 258 59
 59 59 59 302 302 302 302 64 64 64 133 133 5 5 5 313 313 313 313 341
 11 11 11 11 201 201 258 258 258 59 59 59 59 59 59 302 147 133 133 133
 133 281 281 5 173 313 313 313 313 341 11 11 11 11 201 201 258 258 258 59
 59 59 59 59 59 59 61 61 133 133 281 281 281 281 173 173 173 313 313 38
 38 38 38 38 201 201 258 258 59 59 59 59 59 59 59 61 61 61 61 61
 281 281 281 281 173 173 173 313 38 38 38 38 38 38 38 97 97 59 59 59
 59 59 59 59 59 61 61 61 61 61 281 281 281 281 173 265 265 265 265 38
 38 38 38 38 97 97 97 17 17 17 59 59 59 59 59 61 61 61 61 61
 281 281 281 281 265 265 265 265 265 38 38 38 38 38 97 97 97 17 17 17
 17 59 59 59 256 256 61 61 61 61 345 345 345 345 265 265 265 265 265 38
 38 38 38 38 97 97 97 97 17 17 17 59 59 256 256 256 256 61 61 61
 345 345 345 345 265 265 265 265 265 265 373 373 373 97 97 97 97 97 226 226
 226 226 176 256 256 256 256 61 61 345 345 345 345 345 265 265 265 265 265 265
 373 353 373 52 97 97 186 186 226 226 226 226 176 176 176 176 256 148 280 345
 345 345 345 345 345 335 335 335 335 335 353 353 52 52 254 254 254 186 226 226
 226 226 176 176 176 176 103 103 103 345 345 345 345 345 266 266 335 335 335 247
 247 247 52 52 254 254 254 186 186 186 46 176 176 176 176 176 103 103 103 103
 217 217 217 217 266 266 266 335 335 247 247 247 52 52 254 254 186 186 186 46
 46 46 176 176 176 176 103 103 103 103 217 217 217 266 266 266 266 266 247 247
 247 84 84 84 130 130 186 186 242 242 46 46 46 317 321 321 321 321 12 12
 12 217 217 266 266 266 266 266 35 84 84 84 84 84 130 130 130 242 242 242
 242 46 46 321 321 321 321 321 12 12 12 12 272 48 266 266 35 35 35 84
 84 84 84 84 130 130 130 242 242 242 242 242 321 321 321 321 321 321 12 12
 12 12 272 48 48 48 35 35 35 84 84 84 84 318 130 130 130 242 242 242
 242 242 321 321 321 321 321 321 12 12 9 9 272 272 48 48 194 194 194 194
 84 84 318 318 318 260 260 260 242 242 242 242 150 150 321 321 321 9 9 9
 9 9 272 272 272 194 194 194 194 194 202 202 202 318 318 260 260 260 260 260
 372 372 372 150 150 150 150 9 9 9 9 9 349 272 272 194 194 194 194 194
 202 202 202 318 318 260 260 260 380 380 372 372 372 372 372 150 150 9 9 9
 9 9 349 349 194 194 194 194 194 194 202 202 202 202 238 238 238 380 380 380
 372 372 372 372 372 303 303 9 9 9 9 349 349 349 349 194 194 194 194 194
 202 85 85 85 85 238 238 380 380 380 380 372 372 372 372 303 303 303 9 9
 349 349 349 349 349 219 219 219 219 219 85 85 85 85 85 85 238 380 380 380
 380 223 372 372 303 303 303 303 303 9 349 349 349 349 219 219 219 219 219 219
 85 85 85 85 85 85 75 75 75 75 223 223 223 240 303 303 303 303 303 9
 279 279 279 279 279 219 219 219 219 219 85 85 85 85 85 85 75 75 75 75
 75 223 240 240 303 303 303 303 303 303 279 359 359 359 51 51 219 219 219 219
 85 85 85 85 85 85 75 75 75 75 75 3 240 240 303 303 303 303 303 279
 359 359 359 359 51 51 51 51 219 377 218 296 296 296 296 296 75 75 75 75
 3 3 3 3 125 125 315 315 315 315 359 359 359 51 51 51 51 51 377 377
 218 296 296 296 296 296 75 75 75 75 3 3 3 302 302 125 125 315 315 315
 311 311 311 51 51 51 51 51 197 377 218 296 296 296 296 296 294 294 75 75
 3 3 302 302 302 302 302 225 225 64 311 311 311 311 51 51 51 313 313 197
 11 11 296 296 296 294 294 294 294 86 86 86 302 302 302 302 225 225 225 64
 311 311 311 311 5 51 313 313 313 313 11 11 11 296 201 201 201 294 294 86
 86 86 86 302 302 147 147 225 225 64 311 311 311 311 5 313 313 313 313 313
 11 11 11 11 201 201 201 294 86 86 86 86 86 86 147 147 147 147 225 225
 306 281 281 399 399 313 313 313 313 11 11 11 11 11 201 201 201 258 59 59
 59 59 59 59 147 147 147 147 306 306 281 281 281 281 173 173 173 313 313 184
 38 38 38 38 201 201 201 59 59 59 59 59 59 59 59 147 61 61 61 306
 281 281 281 281 173 173 173 313 38 38 38 38 38 38 151 151 151 135 135 135
 59 59 59 59 59 102 61 61 61 61 281 281 281 281 173 265 265 265 265 38
 38 38 38 38 151 151 151 17 17 17 135 59 59 59 102 102 102 61 61 61
 281 281 281 281 265 265 265 265 265 38 38 38 38 97 97 97 97 17 17 17
 17 59 59 102 102 102 61 61 61 61 345 345 345 345 265 265 265 265 98 98
 38 38 38 97 97 97 97 97 17 17 17 59 138 138 256 102 256 61 61 61
 345 345 345 345 265 265 265 265 265 265 353 353 353 97 97 97 97 97 226 226
 226 226 176 176 256 256 148 148 148 345 345 345 345 345 345 265 265 265 335 353
 353 353 353 97 97 97 97 226 226 226 226 226 176 176 176 148 148 148 148 345
 345 345 345 345 345 335 335 335 335 335 353 353 353 254 254 254 254 254 226 226
 226 226 176 176 176 148 148 148 148 345 217 217 217 217 266 266 335 335 335 335
 353 353 353 254 254 254 254 254 186 226 226 317 317 317 317 317 103 103 103 103
 217 217 217 217 266 266 266 335 335 335 247 84 84 254 254 254 254 254 186 242
 46 317 317 317 317 317 103 103 103 217 217 217 217 266 266 266 266 266 335 335
 84 84 84 130 130 130 130 130 242 242 242 317 317 317 317 321 321 321 103 217
 217 217 217 266 266 266 266 35 35 35 84 84 84 130 130 130 130 130 242 242
 242 317 317 317 321 321 321 321 12 12 12 217 272 272 266 266 35 35 35 35
 84 84 84 130 130 130 130 242 242 242 242 242 317 321 321 321 321 321 12 12
 12 272 272 272 272 35 35 35 35 35 84 84 84 130 130 130 130 242 242 242
 242 242 317 321 321 321 321 321 12 12 9 272 272 272 272 272 35 35 35 35
 84 84 318 130 130 130 130 242 242 242 242 242 321 321 321 321 321 9 9 9
 9 9 272 272 272 272 194 194 35 35 202 202 202 318 130 130 260 260 13 13
 13 372 372 372 372 150 321 9 9 9 9 9 272 272 272 272 194 194 194 194
 202 202 202 202 267 267 267 13 13 13 13 372 372 372 372 150 9 9 9 9
 9 9 349 272 272 194 194 194 194 194 202 202 202 202 267 267 267 267 13 13
 372 372 372 372 372 303 303 9 9 9 9 9 349 349 87 87 87 87 87 194
 202 85 85 85 85 85 267 380 213 380 372 372 372 372 372 303 303 303 9 9
 349 349 349 349 87 87 87 219 219 219 85 85 85 85 85 85 213 213 213 223
 223 223 372 372 303 303 303 303 303 9 349 349 349 87 87 87 219 219 219 219
 85 85 85 85 85 85 213 213 213 223 223 223 223 223 303 303 303 303 303 303
 279 279 279 279 87 87 219 219 219 219 85 85 85 85 85 85 213 213 75 75
 223 223 223 303 303 303 303 303 303 303 100 100 100 359 51 51 219 219 219 219
 214 85 85 85 85 85 213 75 75 75 75 223 223 303 303 303 303 303 303 303
 100 100 100 359 51 51 51 51 219 214 214 296 296 296 296 296 75 75 75 75
 75 3 3 302 302 125 315 315 315 315 100 100 100 51 51 51 51 51 51 197
 214 296 296 296 296 296 75 75 75 75 75 3 302 302 302 125 315 315 315 315
 311 311 311 311 51 51 51 51 197 197 197 296 296 296 296 294 294 294 294 75
 86 86 302 302 302 302 225 225 225 225 311 311 311 311 51 51 51 197 197 197
 197 197 296 296 296 294 294 294 294 86 86 86 86 302 302 302 225 225 225 225
 311 311 311 311 311 51 313 313 197 197 11 11 11 201 201 201 294 294 294 86
 86 86 86 302 302 147 147 225 225 225 311 311 311 311 399 399 313 313 313 197
 11 11 11 11 201 201 201 294 86 86 86 86 86 86 147 147 147 147 225 225
 306 306 311 399 399 399 399 313 313 184 11 11 11 11 201 201 201 294 86 86
 86 86 86 86 147 147 147 147 306 306 306 306 306 399 399 399 399 399 184 184
 184 184 184 184 253 253 253 135 135 135 86 86 86 86 147 147 147 147 306 306
 306 306 281 399 399 399 399 399 184 184 184 184 184 184 151 151 151 135 135 135
 135 59 59 102 102 102 102 102 306 306 306 306 276 276 399 399 98 98 98 184
 184 184 184 151 151 151 151 135 135 135 135 135 59 102 102 102 102 102 306 306
 345 345 345 345 265 98 98 98 98 184 184 184 184 151 151 151 97 135 135 135
 135 135 138 102 102 102 102 102 61 61 345 345 345 345 265 98 98 98 98 98
 184 184 184 97 97 97 97 97 17 17 135 135 138 138 102 102 102 148 148 345
 345 345 345 345 345 98 98 98 98 98 353 353 353 353 97 97 97 97 226 226
 226 138 138 138 148 148 148 148 148 345 345 345 345 345 345 335 335 335 335 353
 353 353 353 353 254 254 97 226 226 226 226 226 176 176 148 148 148 148 148 345
 345 345 282 282 282 335 335 335 335 335 353 353 353 254 254 254 254 254 226 226
 226 226 317 317 148 148 148 148 148 148 217 217 217 217 266 266 335 335 335 335
 353 353 353 254 254 254 254 254 226 226 226 317 317 317 317 148 148 148 148 148
 217 217 217 217 266 266 266 335 335 335 335 353 254 254 254 254 254 254 254 300
 317 317 317 317 317 317 103 103 103 217 217 217 217 217 266 266 266 266 335 335
 37 84 37 130 130 130 130 130 300 300 300 317 317 317 317 317 321 321 217 217
 217 217 217 266 266 266 266 35 35 35 84 84 84 130 130 130 130 130 300 300
 300 317 317 317 317 321 321 321 12 217 217 217 272 272 266 266 35 35 35 35
 84 84 84 130 130 130 130 130 300 300 300 300 317 317 321 321 321 321 12 12
 200 200 272 272 272 272 35 35 35 35 35 143 143 130 130 130 130 130 300 300
 300 300 329 329 321 321 321 321 200 200 200 200 272 272 272 272 35 35 35 35
 143 143 143 143 130 130 130 130 300 300 300 329 329 329 329 321 321 9 9 200
 200 200 272 272 272 272 35 35 35 35 143 143 143 143 267 267 267 13 13 13
 13 372 372 372 329 329 321 9 9 9 9 200 272 272 272 272 194 194 194 270
 202 202 202 267 267 267 267 267 13 13 13 372 372 372 372 372 9 9 9 9
 9 9 272 272 272 87 87 87 87 270 202 202 202 267 267 267 267 267 13 13
 372 372 372 372 372 303 303 78 9 9 9 9 128 128 87 87 87 87 87 87
 208 85 85 85 267 267 267 267 213 13 372 372 372 372 372 303 303 303 303 9
 9 239 128 87 87 87 87 87 87 208 208 85 85 85 85 267 213 213 213 223
 223 223 223 372 303 303 303 303 303 9 9 239 87 87 87 87 87 87 87 208
 208 85 85 85 85 213 213 213 213 213 223 223 223 223 303 303 303 303 303 303
 100 100 100 87 87 87 87 87 208 208 208 85 85 85 85 213 213 213 213 213
 223 223 223 223 303 303 303 303 303 303 100 100 100 100 87 87 87 87 208 214
 214 214 214 85 85 213 213 213 213 75 223 223 223 223 303 303 303 303 303 303
 100 100 100 100 51 51 51 51 214 214 214 214 214 296 296 213 213 213 75 75
 75 3 3 302 303 303 315 315 315 315 100 100 100 100 51 51 51 51 214 214
 214 214 214 296 296 294 294 294 75 75 75 3 302 302 302 382 315 315 315 315
 311 311 311 311 51 51 51 197 197 197 214 214 214 214 296 294 294 294 294 294
 86 86 86 302 302 302 225 225 225 225 311 311 311 311 311 51 237 197 197 197
 197 214 214 214 294 294 294 294 294 86 86 86 86 302 302 147 225 225 225 225
 311 311 311 311 311 237 237 197 197 197 197 11 214 214 201 294 294 294 294 86
 86 86 86 86 147 147 147 225 225 225 311 311 311 311 399 399 399 237 197 197
 11 11 11 346 201 294 294 294 86 86 86 86 86 86 147 147 147 147 225 306
 306 306 311 399 399 399 399 399 184 184 184 184 184 346 253 253 253 294 86 86
 86 86 86 86 147 147 147 147 306 306 306 306 306 276 399 399 399 399 184 184
 184 184 184 346 253 253 253 135 135 135 86 86 86 86 147 147 147 306 306 306
 306 306 276 276 399 399 399 399 184 184 184 184 184 346 151 151 151 135 135 135
 135 135 86 102 102 102 102 102 306 306 306 306 276 276 276 98 98 98 98 184
 184 184 184 346 151 151 151 135 135 135 135 135 138 102 102 102 102 102 306 306
 306 122 276 276 98 98 98 98 98 184 184 184 184 346 151 151 151 135 135 135
 135 135 138 138 102 102 102 102 306 306 345 345 345 282 282 98 98 98 98 98
 184 184 184 346 151 151 97 97 135 135 135 138 138 138 138 102 148 148 148 148
 345 345 345 282 282 98 98 98 98 98 353 353 353 353 97 97 97 97 226 226
 135 138 138 138 138 148 148 148 148 148 345 345 345 282 282 282 335 335 335 353
 353 353 353 353 254 254 254 226 226 226 226 138 138 138 138 148 148 148 148 148
 345 282 282 282 282 282 335 335 335 335 353 353 353 254 254 254 254 254 226 226
 226 39 39 39 39 39 148 148 148 148 217 217 282 282 266 266 335 335 335 335
 353 353 353 254 254 254 254 254 254 226 262 39 39 39 39 39 148 148 148 148
 217 217 217 266 266 266 266 335 335 335 37 37 37 254 254 254 254 254 254 300
 262 262 317 317 317 317 317 148 217 217 217 217 217 266 266 266 266 266 335 335
 37 37 37 130 130 130 130 300 300 300 300 262 317 317 317 317 321 321 217 217
 217 217 217 266 266 266 266 35 35 35 37 37 37 130 130 130 130 300 300 300
 300 300 317 317 317 317 321 321 217 217 200 200 200 272 266 266 266 35 35 35
 143 143 143 130 130 130 130 300 300 300 300 300 317 317 317 321 321 321 200 200
 200 200 200 272 272 272 35 35 35 35 143 143 143 143 130 130 130 300 300 300
 300 300 329 329 329 329 321 321 200 200 200 200 200 272 272 272 35 35 35 143
 143 143 143 143 130 130 130 300 300 300 300 329 329 329 329 329 321 200 200 200
 200 200 200 272 272 272 272 35 270 270 143 143 143 143 267 267 267 267 13 13
 13 372 329 329 329 329 329 9 200 200 200 200 200 272 272 272 87 270 270 270
 270 143 143 143 267 267 267 267 13 13 13 372 372 372 372 78 78 78 78 200
 200 200 128 128 128 87 87 87 270 270 270 143 143 267 267 267 267 267 13 13
 372 372 372 372 372 78 78 78 78 78 239 239 128 128 128 87 87 87 87 270
 270 47 47 47 267 267 267 267 213 213 372 372 372 372 372 303 78 78 78 78
 239 239 128 128 87 87 87 87 87 208 208 208 47 47 47 267 213 213 213 213
 223 223 223 178 178 178 303 78 78 78 239 239 41 128 87 87 87 87 208 208
 208 208 47 47 47 213 213 213 213 213 223 223 223 178 178 178 303 303 303 78
 100 100 100 87 87 87 87 87 208 208 208 208 47 47 47 213 213 213 213 213
 223 223 223 178 178 178 178 303 303 303 100 100 100 100 71 71 87 87 208 214
 214 214 214 214 375 213 213 213 213 213 223 223 223 178 178 178 178 303 303 139
 100 100 100 100 71 71 71 71 214 214 214 214 214 214 375 375 213 213 213 213
 75 223 223 302 382 382 382 382 382 382 100 100 100 100 71 71 71 71 214 214
 214 214 214 214 375 375 294 294 294 75 86 86 86 302 382 382 382 382 382 382
 311 311 311 311 71 71 71 71 197 214 214 214 214 214 375 375 294 294 294 294
 86 86 86 86 382 382 382 382 225 311 311 311 311 311 311 237 237 237 197 197
 197 214 214 214 375 294 294 294 294 86 86 86 86 86 147 147 225 225 225 225
 311 311 311 311 311 237 237 237 237 197 197 214 214 214 375 294 294 294 294 86
 86 86 86 86 147 147 147 225 225 225 306 311 311 311 237 237 237 237 237 237
 11 11 184 346 346 294 294 294 86 86 86 86 86 86 147 147 147 225 225 306
 306 306 311 399 399 399 237 237 237 184 184 184 184 346 346 346 346 346 86 86
 86 86 86 86 147 147 147 147 306 306 306 306 276 276 399 399 399 237 184 184
 184 184 184 346 346 253 346 346 135 135 86 86 86 86 147 147 147 306 306 306
 306 306 276 276 276 399 399 399 184 184 184 184 184 346 346 346 151 135 135 135
 135 135 86 102 102 102 102 306 306 306 306 122 276 276 276 276 98 98 184 184
 184 184 184 346 346 151 151 135 135 135 135 135 138 138 102 102 102 102 306 306
 122 122 276 276 276 98 98 98 98 184 184 184 184 346 346 151 346 135 135 135
 135 138 138 138 138 102 102 102 306 306 122 282 282 282 282 98 98 98 98 98
 184 184 184 346 346 346 346 135 135 135 135 138 138 138 138 138 148 148 148 148
 345 282 282 282 282 282 98 98 98 98 353 353 353 346 346 346 346 135 135 135
 135 138 138 138 138 138 148 148 148 148 345 282 282 282 282 282 335 335 335 353
 353 353 353 353 254 254 254 226 226 226 226 138 138 138 138 148 148 148 148 148
 282 282 282 282 282 282 335 335 335 335 353 353 353 124 124 124 124 124 171 171
 262 39 39 39 39 39 181 181 181 181 217 282 282 282 282 266 335 335 335 335
 37 37 37 254 254 254 254 254 254 262 262 262 39 39 39 39 181 181 181 181
 217 217 217 266 266 266 266 335 335 37 37 37 37 37 254 254 254 254 300 300
 262 262 39 39 39 39 181 181 217 217 217 217 217 266 266 266 266 266 335 37
 37 37 37 37 130 149 130 300 300 300 262 262 262 317 317 317 142 142 217 217
 217 217 217 266 266 266 266 35 257 257 37 37 37 37 130 130 130 300 300 300
 300 262 262 317 317 317 142 142 142 217 200 200 200 200 266 266 266 35 257 257
 37 37 37 37 130 130 130 300 300 221 300 300 329 329 329 329 142 142 200 200
 200 200 200 200 200 200 35 35 257 143 143 143 143 143 130 130 130 300 300 300
 300 300 329 329 329 329 329 200 200 200 200 200 200 200 272 272 209 35 35 143
 143 143 143 143 130 130 130 300 300 300 300 329 329 329 329 329 329 200 200 200
 200 200 200 200 272 272 209 270 270 270 143 143 143 143 267 267 267 267 300 300
 300 329 329 329 329 329 329 200 200 200 200 200 200 200 272 308 87 270 270 270
 270 143 143 143 267 267 267 267 13 13 13 329 329 329 329 329 78 78 78 200
 200 239 128 128 128 308 87 87 270 270 270 143 143 267 267 267 267 267 13 13
 310 310 372 372 372 78 78 78 78 78 239 239 128 55 128 87 87 87 87 365
 365 365 47 47 267 267 267 267 213 310 310 310 310 372 178 178 78 78 78 78
 239 239 128 128 87 87 87 87 208 208 208 208 47 47 47 267 267 213 213 213
 223 223 223 178 178 178 178 78 78 78 41 41 41 41 87 87 87 87 208 208
 208 208 47 47 47 213 213 213 213 213 223 223 223 178 178 178 178 178 78 78
 41 41 41 41 87 87 87 87 208 208 208 208 47 47 47 213 213 213 213 213
 223 223 223 178 178 178 178 178 303 139 100 100 100 71 71 71 71 152 152 214
 214 214 214 375 375 375 213 213 213 213 223 223 223 178 178 178 178 178 139 139
 100 100 100 71 71 71 71 152 152 214 214 214 214 375 375 375 375 213 213 213
 309 309 309 382 382 382 382 382 382 139 100 100 100 71 71 71 71 152 152 214
 214 214 214 375 375 375 375 294 294 331 309 309 309 382 382 382 382 382 382 382
 311 311 311 311 71 71 71 152 152 214 214 214 214 214 375 375 375 294 294 331
 86 309 86 382 382 382 382 382 382 311 311 311 311 311 237 237 237 237 237 214
 214 214 214 214 375 375 294 294 294 86 86 86 86 86 382 382 382 382 225 225
 311 311 311 311 237 237 237 237 237 237 214 214 214 214 375 193 193 193 193 86
 86 86 86 86 147 147 147 225 225 225 306 311 311 159 237 237 237 237 237 237
 237 214 346 346 346 193 193 193 193 86 86 86 86 86 147 147 147 225 225 306
 306 306 159 159 159 237 237 237 237 184 184 184 346 346 346 346 193 193 193 86
 86 86 86 86 147 147 147 147 306 306 306 306 159 159 159 237 237 237 184 184
 184 184 184 346 346 346 346 346 135 135 86 86 86 86 147 147 147 306 306 306
 306 122 276 276 276 276 399 237 184 184 184 184 184 346 346 346 346 346 135 135
 135 135 86 198 102 102 102 306 306 306 122 122 276 276 276 276 228 228 184 184
 184 184 184 346 346 346 346 346 135 135 135 135 138 138 102 102 102 23 306 306
 122 122 276 276 276 276 228 228 228 184 184 184 184 346 346 346 346 346 135 135
 135 138 138 138 138 138 102 102 306 122 122 122 282 282 282 282 228 228 228 184
 184 184 184 346 346 346 346 346 135 135 138 138 138 138 138 138 138 181 181 122
 122 282 282 282 282 282 228 228 228 228 353 291 353 346 346 346 346 346 135 135
 138 138 138 138 138 138 181 181 181 181 282 282 282 282 282 282 228 228 228 228
 291 291 291 124 124 124 124 124 171 171 171 138 138 138 138 181 181 181 181 181
 99 282 282 282 282 282 335 335 335 291 291 291 291 124 124 124 124 124 171 171
 171 171 39 39 39 181 181 181 181 181 99 282 282 282 282 282 335 335 335 37
 37 37 37 124 124 124 124 124 262 262 262 262 39 39 39 39 181 181 181 181
 123 123 123 123 286 286 286 335 335 37 37 37 37 37 149 149 149 149 262 262
 262 262 262 39 39 39 181 181 181 123 123 123 123 266 286 286 286 286 37 37
 37 37 37 37 149 149 149 300 300 300 262 262 262 317 317 142 142 142 142 360
 360 200 200 200 286 286 286 356 257 257 37 37 37 37 149 149 149 300 300 300
 300 262 262 317 317 142 142 142 142 360 360 200 200 200 200 286 356 356 257 257
 257 37 37 37 130 149 130 300 300 300 300 300 329 329 329 142 142 142 360 360
 200 200 200 200 200 209 209 356 257 257 143 143 143 143 130 130 130 300 300 300
 300 300 329 329 329 329 142 142 360 200 200 200 200 200 200 209 209 209 209 143
 143 143 143 143 143 267 403 403 300 300 300 329 329 329 329 329 142 142 200 200
 200 200 200 200 200 209 209 209 270 270 143 143 143 143 267 267 403 403 403 300
 300 329 329 329 329 329 329 200 200 200 200 200 200 200 308 308 308 209 270 270
 270 143 143 143 267 267 267 403 403 403 310 310 310 329 329 329 78 78 78 200
 200 136 200 128 308 308 308 87 365 365 365 365 143 267 267 267 267 267 403 310
 310 310 310 310 329 78 78 78 78 78 136 136 128 128 308 308 308 87 365 365
 365 365 47 47 267 267 267 267 62 310 310 310 310 310 178 178 78 78 78 78
 41 41 41 128 308 308 87 87 208 365 365 208 47 47 47 267 62 62 62 62
 310 310 310 178 178 178 178 78 78 78 41 41 41 41 308 87 87 87 208 208
 208 208 47 47 47 62 62 62 62 62 310 310 310 178 178 178 178 178 78 41
 41 41 41 41 308 87 87 87 208 208 208 208 47 47 47 213 62 62 62 62
 223 223 223 178 178 178 178 178 139 139 139 41 41 71 71 71 152 152 152 152