# vtk DataFile Version 2.0
Data set from IO Version 6.4.197.9a0dee2
ASCII

DATASET RECTILINEAR_GRID
DIMENSIONS 31 31 31
X_COORDINATES 31 float
-5.500000 5.500000 16.500000 27.500000 38.500000 49.500000 60.500000 71.500000 82.500000 93.500000 104.500000 115.500000 126.500000 137.500000 148.500000 159.500000 170.500000 181.500000 192.500000 203.500000 214.500000 
225.500000 236.500000 247.500000 258.500000 269.500000 280.500000 291.500000 302.500000 313.500000 324.500000 
Y_COORDINATES 31 float
-5.500000 5.500000 16.500000 27.500000 38.500000 49.500000 60.500000 71.500000 82.500000 93.500000 104.500000 115.500000 126.500000 137.500000 148.500000 159.500000 170.500000 181.500000 192.500000 203.500000 214.500000 
225.500000 236.500000 247.500000 258.500000 269.500000 280.500000 291.500000 302.500000 313.500000 324.500000 
Z_COORDINATES 31 float
-5.500000 5.500000 16.500000 27.500000 38.500000 49.500000 60.500000 71.500000 82.500000 93.500000 104.500000 115.500000 126.500000 137.500000 148.500000 159.500000 170.500000 181.500000 192.500000 203.500000 214.500000 
225.500000 236.500000 247.500000 258.500000 269.500000 280.500000 291.500000 302.500000 313.500000 324.500000 
CELL_DATA 27000
SCALARS FeatureIds int 1
LOOKUP_TABLE default
 103 103 103 103 149 149 149 149 268 268 268 268 268 320 320 367 367 367 367 367
 367 262 262 262 262 262 266 266 266 103 103 103 103 103 149 149 149 355 355 355
 268 268 320 320 320 320 367 367 367 367 367 262 262 262 262 262 266 266 266 383
 383 103 287 287 287 355 355 355 355 355 355 320 320 320 320 320 367 367 367 367
 367 262 262 262 262 231 266 266 383 383 383 383 287 287 287 355 355 355 355 355
 400 400 400 320 320 320 367 367 367 367 367 113 262 231 231 231 178 178 383 383
 383 383 287 287 287 355 355 355 355 355 400 400 400 320 320 320 367 367 367 113
 113 113 113 231 231 231 178 178 178 383 383 34 34 34 34 355 355 355 355 400
 400 400 400 400 320 320 367 367 113 113 113 113 113 113 231 178 178 178 178 178
 34 34 34 34 34 34 355 355 355 400 400 400 400 400 396 396 396 396 113 113
 113 113 113 113 113 178 178 178 178 178 34 34 34 34 34 34 34 133 133 400
 400 400 400 145 396 396 396 396 113 113 113 113 113 113 113 307 406 406 406 406
 283 283 34 34 34 133 133 133 133 400 400 400 400 145 396 396 396 396 113 113
 113 113 113 113 113 406 406 406 406 406 340 340 340 34 133 133 133 133 133 28
 293 293 242 242 396 396 396 242 113 113 113 113 113 113 113 406 406 406 406 406
 340 340 340 133 133 133 133 133 133 28 28 293 242 242 242 242 242 242 242 113
 113 171 113 113 69 69 406 406 406 406 340 340 340 133 133 133 133 133 28 28
 28 28 242 242 242 242 242 242 31 171 171 171 201 201 201 69 406 406 406 406
 407 340 340 381 381 381 381 381 28 28 28 28 242 242 242 242 242 242 31 31
 171 201 201 201 201 69 69 406 406 407 407 407 407 381 381 381 381 381 359 359
 359 359 242 242 242 242 242 31 31 31 201 201 201 201 201 5 5 406 407 407
 407 407 407 381 381 381 381 381 359 359 359 359 53 53 53 53 53 53 31 31
 201 201 201 201 201 5 5 407 407 407 407 407 17 17 17 381 381 359 359 359
 359 359 314 53 53 53 53 53 53 198 201 201 201 201 201 5 230 407 407 407
 407 17 17 17 353 353 353 359 359 359 359 314 314 314 314 53 53 53 198 198
 318 318 318 318 201 230 230 230 230 407 17 17 17 17 353 353 353 353 359 359
 117 314 314 314 314 314 53 198 198 198 318 318 318 318 22 22 199 230 199 199
 17 17 17 17 353 353 353 353 117 117 117 117 314 314 314 314 198 198 198 198
 198 318 318 22 22 22 199 199 199 199 317 317 142 142 142 142 142 142 142 117
 117 117 117 314 314 314 198 198 198 198 198 198 22 22 22 22 199 199 199 199
 317 317 142 142 142 142 142 142 142 117 117 117 117 299 299 299 198 198 198 198
 198 198 22 22 22 22 199 199 199 199 317 364 364 142 142 142 142 142 142 117
 117 117 299 299 299 217 217 313 217 198 198 198 63 63 63 63 63 199 199 199
 364 364 364 142 142 142 142 142 142 211 211 211 211 299 299 217 313 313 313 217
 198 198 63 63 63 63 138 138 138 138 414 414 364 142 142 142 142 142 142 211
 211 211 211 211 299 217 217 313 217 217 217 246 246 63 63 63 138 138 138 138
 414 414 414 414 142 142 142 142 221 221 211 211 211 211 301 301 217 217 217 217
 217 246 246 246 316 316 138 138 138 138 414 414 414 414 142 142 311 221 221 221
 221 211 211 211 301 301 301 217 217 172 172 172 246 316 316 316 316 316 138 414
 414 414 414 414 149 149 149 221 221 221 221 80 80 80 301 301 301 217 172 172
 172 172 49 49 49 316 316 197 197 197 103 103 103 149 149 149 149 149 268 268
 268 80 80 80 80 301 301 301 172 172 172 172 49 49 49 49 197 197 197 197
 103 103 103 149 149 149 149 149 268 268 268 268 80 80 80 367 367 367 367 367
 172 172 49 49 49 49 197 197 197 103 103 103 103 149 149 149 149 149 268 268
 268 268 80 80 80 367 367 367 367 367 367 262 262 262 49 49 197 197 197 103
 103 103 103 103 149 149 149 149 268 268 268 268 115 320 320 367 367 367 367 367
 367 262 262 262 262 262 266 266 266 103 103 103 103 103 149 149 149 149 355 355
 115 115 320 320 320 320 367 367 367 367 367 262 262 262 262 262 266 266 266 103
 383 103 287 287 122 122 355 355 355 355 400 400 320 320 320 320 367 367 367 367
 367 262 262 262 262 262 266 266 266 383 383 328 287 287 287 122 355 355 355 355
 400 400 400 320 320 320 367 367 367 367 367 262 262 262 262 262 178 178 178 383
 383 328 287 287 287 122 355 355 355 400 400 400 400 400 258 258 258 367 367 113
 113 113 113 231 231 178 178 178 178 178 383 34 34 34 34 34 355 355 355 400
 400 400 400 400 258 258 258 258 113 113 113 113 113 113 274 178 178 178 178 178
 34 34 34 34 34 34 34 355 400 400 400 400 400 400 396 396 396 396 113 113
 113 113 113 113 274 274 178 178 178 178 283 34 34 34 34 34 34 133 400 400
 400 400 400 396 396 396 396 396 113 113 113 113 113 113 274 274 274 178 178 178
 283 283 34 34 34 133 133 133 293 293 293 293 400 396 396 396 396 396 105 105
 113 113 113 113 274 274 406 406 406 283 283 283 283 34 133 133 133 133 293 293
 293 293 293 396 396 396 396 105 105 105 105 113 113 113 94 94 406 406 406 283
 340 340 340 340 133 133 133 133 28 28 28 293 293 242 242 242 242 242 105 105
 171 171 171 94 94 94 94 406 406 283 340 340 340 340 133 133 133 133 28 28
 28 293 293 242 242 242 242 31 31 31 171 171 171 201 94 94 94 406 406 340
 340 340 340 381 381 381 381 381 28 28 28 293 293 242 242 242 31 31 31 31
 171 171 201 201 94 94 94 94 407 407 407 407 340 381 381 381 381 381 359 359
 359 359 158 242 242 242 31 31 31 31 171 201 201 201 201 94 94 94 407 407
 407 407 17 17 381 381 381 381 359 359 359 359 359 53 53 53 31 31 31 31
 31 201 201 201 201 5 94 407 407 407 407 17 17 17 17 381 381 359 359 359
 359 359 314 314 314 53 53 53 31 31 31 201 201 201 201 5 303 407 407 407
 17 17 17 17 353 353 353 359 359 359 359 314 314 314 314 53 53 53 198 198
 318 318 318 318 22 22 199 199 407 407 17 17 17 17 353 353 353 359 359 359
 117 117 314 314 314 314 53 198 198 198 198 318 318 22 22 22 199 199 199 199
 317 317 17 17 353 353 353 353 117 117 117 117 314 314 314 314 198 198 198 198
 198 198 318 22 22 22 199 199 199 199 317 317 317 142 142 142 142 142 117 117
 117 117 117 117 314 314 198 198 198 198 198 198 22 22 22 22 199 199 199 199
 317 317 317 142 142 142 142 142 117 117 117 117 117 299 299 299 198 198 198 198
 198 198 198 22 22 177 199 199 199 199 317 317 364 364 142 142 142 142 142 117
 117 117 299 299 299 313 313 313 198 198 198 198 198 246 177 177 177 199 199 199
 317 364 364 364 142 142 142 142 142 117 117 117 299 299 299 313 313 313 313 313
 198 246 246 246 63 177 177 138 138 48 414 364 364 364 142 142 142 142 142 211
 211 211 211 299 299 313 313 313 313 313 313 246 246 246 246 246 138 138 138 48
 414 414 414 414 311 311 311 142 221 221 211 211 211 211 301 313 313 313 313 313
 172 246 246 246 246 316 316 138 138 414 414 414 414 414 311 311 311 187 221 221
 221 211 211 80 301 301 301 217 172 172 172 172 246 49 49 316 316 316 138 414
 414 414 414 414 149 311 311 187 187 187 221 80 80 80 80 301 301 172 172 172
 172 172 49 49 49 316 316 197 197 414 103 103 103 149 149 149 149 149 187 187
 268 80 80 80 80 80 301 172 172 172 172 172 49 49 49 49 197 197 197 103
 103 103 103 149 149 149 149 149 268 268 268 268 80 80 80 80 367 367 172 172
 172 172 49 49 49 49 197 197 197 103 103 103 103 103 149 149 149 149 268 268
 268 268 80 80 80 367 367 367 367 367 172 262 262 262 49 49 197 197 197 103
 103 103 103 103 149 149 149 149 149 115 115 115 115 115 115 350 350 367 367 367
 367 262 262 262 262 262 266 266 266 103 103 103 103 103 149 149 149 149 149 115
 115 115 115 115 115 350 350 367 367 367 262 262 262 262 262 262 266 266 266 103
 328 328 328 103 122 122 122 355 355 115 115 115 115 115 115 350 350 367 367 367
 367 262 262 262 262 262 266 266 266 266 328 328 328 122 122 122 122 122 355 400
 400 400 400 258 258 258 258 367 367 367 229 229 262 262 262 178 178 178 178 178
 328 328 328 287 122 122 122 355 355 400 400 400 400 258 258 258 258 258 258 229
 229 229 229 262 178 178 178 178 178 178 328 328 34 34 34 122 122 355 400 400
 400 400 400 258 258 258 258 258 258 229 229 229 229 274 274 274 178 178 178 178
 283 34 34 34 34 34 34 355 400 400 400 400 400 258 258 258 258 258 258 113
 229 229 229 274 274 274 274 178 178 178 283 283 34 34 34 34 34 293 293 293
 293 400 400 396 396 396 396 396 105 105 113 113 113 274 274 274 274 274 178 283
 283 283 283 34 34 34 133 293 293 293 293 293 293 293 396 396 396 105 105 105
 105 105 113 274 274 274 274 274 283 283 283 283 283 283 283 133 133 293 293 293
 293 293 293 293 396 396 396 105 182 105 105 105 113 94 94 94 94 406 283 283
 283 283 283 283 133 133 133 293 293 293 293 293 293 293 242 242 242 105 105 105
 105 171 171 94 94 94 94 94 283 283 340 340 340 283 133 133 133 293 293 28
 293 293 293 293 242 242 31 31 31 31 171 171 171 94 94 94 94 94 94 283
 340 340 340 381 381 381 381 381 293 293 293 293 293 158 158 242 31 31 31 31
 171 171 171 94 94 94 94 94 94 407 407 340 340 381 381 381 381 381 359 359
 293 293 158 158 158 158 31 31 31 31 171 201 201 201 94 94 94 94 407 407
 407 17 17 17 381 381 381 381 359 359 359 359 158 158 158 158 31 31 31 31
 31 256 201 201 201 303 303 303 303 407 17 17 17 17 17 381 381 359 359 359
 359 359 314 314 314 314 53 31 31 31 256 256 256 201 201 303 303 303 303 407
 17 17 17 17 17 353 353 359 359 359 359 117 314 314 314 314 53 53 198 198
 256 256 256 256 22 303 303 303 303 407 17 17 17 17 353 353 353 353 359 117
 117 117 314 314 314 314 314 198 198 198 198 256 256 22 22 199 199 199 199 199
 317 317 17 17 353 353 353 353 117 117 117 117 117 314 314 314 198 198 198 198
 198 198 198 22 22 199 199 199 199 199 317 317 317 317 142 142 142 142 117 117
 117 117 117 117 314 314 198 198 198 198 198 198 198 22 22 22 199 199 199 199
 317 317 317 317 142 142 142 142 117 117 117 117 117 117 299 299 198 198 198 198
 198 198 198 22 22 199 199 199 199 199 317 317 364 364 142 142 142 142 142 117
 117 117 117 299 299 313 313 313 198 198 198 198 246 246 177 177 199 199 199 317
 317 317 364 364 364 142 142 142 117 117 117 117 117 299 299 313 313 313 313 313
 198 246 246 246 246 177 177 138 48 48 48 364 364 364 311 311 311 311 117 117
 117 117 117 299 299 313 313 313 313 313 313 246 246 246 246 246 138 48 48 48
 414 414 414 414 311 311 311 311 187 221 9 9 335 335 335 313 313 313 313 313
 246 246 246 246 246 246 316 138 48 48 414 414 414 414 311 311 311 187 187 187
 9 9 335 335 335 301 313 313 172 172 172 246 246 246 246 246 316 316 48 414
 414 414 414 414 311 311 311 187 187 187 187 9 80 80 80 80 80 172 172 172
 172 172 49 49 49 49 49 197 197 414 103 103 103 149 149 149 149 187 187 187
 187 80 80 80 80 80 80 172 172 172 172 172 49 49 49 49 49 197 197 103
 103 103 103 149 149 149 149 149 187 187 187 115 80 80 80 80 367 367 172 172
 172 172 49 49 49 49 197 197 197 103 103 103 103 103 149 149 149 149 268 268
 115 115 115 115 115 367 367 367 367 367 172 172 49 49 49 49 197 197 197 103
 103 103 103 103 149 149 149 149 149 115 115 115 115 115 115 350 350 350 350 350
 350 84 84 84 84 84 266 266 141 141 103 103 103 103 149 122 149 149 115 115
 115 115 115 115 115 350 350 350 350 350 350 84 84 84 84 84 266 266 266 141
 328 328 328 122 122 122 122 122 115 115 115 115 115 115 115 350 350 350 350 350
 350 84 84 84 84 84 266 266 266 278 328 328 328 122 122 122 122 122 122 115
 115 115 115 115 258 258 258 350 350 350 229 229 229 84 84 178 178 178 178 278
 328 328 328 122 122 122 122 122 122 400 400 400 400 258 258 258 258 258 350 229
 229 229 229 229 274 178 178 178 178 178 328 328 328 34 122 122 122 122 400 400
 400 400 400 258 258 258 258 258 258 229 229 229 229 229 274 274 274 178 178 178
 283 283 283 34 34 122 122 293 293 400 400 400 400 258 258 258 258 258 258 229
 229 229 229 274 274 274 274 274 178 178 283 283 283 34 34 34 34 293 293 293
 293 293 293 258 258 258 258 258 105 105 105 229 229 274 274 274 274 274 178 283
 283 283 283 283 283 283 293 293 293 293 293 293 293 293 396 396 396 105 105 105
 105 105 113 274 274 274 274 274 283 283 283 283 283 283 283 133 133 293 293 293
 293 293 293 293 293 401 105 105 182 105 105 105 94 94 94 94 94 94 283 283
 283 283 283 283 283 133 133 293 293 293 293 293 293 293 293 401 105 105 105 105
 105 105 94 94 94 94 94 94 283 283 283 283 283 283 283 79 79 293 293 293
 293 293 293 293 293 401 31 31 31 105 105 105 94 94 94 94 94 94 94 283
 386 386 386 386 381 79 381 293 293 293 293 293 293 158 158 158 31 31 31 31
 171 171 94 94 94 94 94 94 94 283 386 386 386 17 381 381 381 381 293 293
 293 293 158 158 158 158 31 31 31 31 31 256 94 94 94 94 94 303 303 303
 386 17 17 17 17 381 381 381 359 359 359 158 158 158 158 158 31 31 31 31
 256 256 256 94 303 303 303 303 303 303 17 17 17 17 17 17 17 359 359 359
 359 359 158 158 158 158 234 31 31 256 256 256 256 256 303 303 303 303 303 303
 17 17 17 17 17 17 353 275 359 359 359 117 314 314 314 314 234 234 256 256
 256 256 256 256 100 303 303 303 303 303 17 17 17 17 17 353 353 275 275 117
 117 117 314 314 314 314 314 198 198 256 256 256 256 100 100 303 303 303 303 303
 295 295 317 17 353 353 353 275 117 117 117 117 117 314 314 314 198 198 198 198
 198 256 100 100 100 199 199 199 199 199 317 295 317 317 243 243 243 117 117 117
 117 117 117 117 314 314 198 198 198 198 198 198 198 22 22 199 199 199 199 199
 317 317 317 317 243 243 243 243 117 117 117 117 117 117 299 299 198 198 198 198
 198 198 198 22 22 199 199 199 199 317 317 317 317 317 243 243 243 243 117 117
 117 117 117 117 299 321 313 198 198 198 198 198 246 246 246 199 199 324 324 317
 317 317 317 364 243 243 243 243 117 117 117 117 117 117 321 321 313 313 313 51
 51 246 246 246 246 246 324 324 48 48 48 317 364 364 311 311 311 311 27 117
 117 117 117 117 321 321 313 313 51 51 51 246 246 246 246 246 246 48 48 48
 48 414 414 311 311 311 311 311 311 9 9 9 335 335 335 321 313 51 51 51
 51 246 246 246 246 246 246 48 48 48 414 414 414 311 311 311 311 311 187 187
 9 9 335 335 335 321 313 51 51 51 172 246 246 246 246 246 188 188 48 48
 414 414 414 311 311 311 311 187 187 187 187 9 335 335 335 335 335 172 172 172
 172 172 246 49 49 49 49 188 188 414 103 103 103 149 149 311 311 187 187 187
 187 9 80 80 80 80 80 172 172 172 172 172 49 49 49 49 49 197 197 141
 103 103 103 149 149 149 149 149 187 187 187 115 115 115 115 80 350 350 172 172
 172 172 49 49 49 49 197 197 141 141 103 103 103 149 149 149 149 149 187 115
 115 115 115 115 115 350 350 350 350 350 172 172 84 49 49 49 197 197 141 141
 141 141 103 101 149 149 149 269 269 115 115 115 115 115 115 350 350 350 350 350
 350 84 84 84 84 84 84 141 141 141 141 103 101 101 122 122 122 269 269 115
 115 115 115 115 115 350 350 350 350 350 350 84 84 84 84 84 84 141 141 141
 278 328 328 101 122 122 122 122 115 115 115 115 115 115 115 350 350 350 350 350
 350 84 84 84 84 84 84 278 278 278 278 328 328 122 122 122 122 122 240 115
 115 115 115 115 115 350 350 350 350 350 350 229 84 84 84 84 178 278 278 278
 278 328 328 328 122 122 122 122 240 240 115 115 115 115 258 258 258 258 350 350
 229 229 229 84 84 274 178 178 278 278 278 328 328 122 122 122 122 122 293 293
 400 400 400 258 258 258 258 258 258 229 229 229 229 229 274 274 274 274 178 278
 283 283 283 34 122 122 160 293 293 293 293 293 400 258 258 258 258 258 258 229
 229 229 229 274 274 274 274 274 178 283 283 283 283 283 283 160 160 293 293 293
 293 293 293 258 258 258 258 258 105 105 105 229 229 274 274 274 274 274 274 283
 283 283 283 283 283 283 293 293 293 293 293 293 293 293 401 401 401 105 105 105
 105 105 105 274 274 274 274 274 283 283 283 283 283 283 283 283 293 293 293 293
 293 293 293 293 401 401 401 105 105 105 105 105 105 94 94 94 94 94 283 283
 283 283 283 283 283 283 293 293 293 293 293 293 293 293 401 401 401 105 105 105
 105 105 94 94 94 94 94 94 283 283 283 283 283 283 79 79 79 293 293 293
 293 293 293 293 401 401 401 105 105 105 105 105 94 94 94 94 94 94 94 283
 386 386 386 386 79 79 79 293 293 293 293 293 293 158 158 158 31 31 31 31
 105 105 94 94 94 94 94 94 303 386 386 386 386 386 79 79 79 293 293 293
 271 271 158 158 158 158 31 31 31 31 256 256 94 94 94 94 303 303 303 303
 386 386 386 17 17 381 79 293 293 359 271 158 158 158 158 158 234 234 234 256
 256 256 256 256 303 303 303 303 303 303 386 17 17 17 17 17 39 275 275 275
 275 275 158 158 158 158 234 234 234 256 256 256 256 256 303 303 303 303 303 303
 303 17 17 17 17 17 275 275 275 275 275 275 314 314 314 158 234 234 234 256
 256 256 256 100 100 303 303 303 303 303 17 17 17 17 17 17 275 275 275 275
 275 275 117 314 314 314 234 147 147 256 256 256 256 100 100 303 303 303 303 303
 317 295 317 317 243 243 275 275 275 275 117 117 117 117 314 314 147 147 147 147
 256 256 100 100 100 303 303 303 303 303 317 317 317 317 243 243 243 243 117 117
 117 117 117 117 202 202 147 147 147 147 198 198 100 100 100 199 199 199 199 317
 317 317 317 317 243 243 243 243 117 117 117 117 117 202 202 202 147 147 147 198
 198 198 148 148 148 199 324 324 324 317 317 317 317 317 243 243 243 243 243 117
 117 117 117 202 202 321 321 51 51 51 51 148 148 148 148 324 324 324 324 317
 317 317 317 317 243 243 243 243 27 27 117 117 117 422 321 321 321 51 51 51
 51 51 246 246 246 246 324 324 324 48 48 317 317 317 243 243 243 243 27 27
 27 378 378 422 321 321 321 51 51 51 51 51 246 246 246 246 324 324 48 48
 48 414 317 311 311 311 311 311 27 27 378 378 378 335 321 321 321 51 51 51
 51 51 246 246 246 246 188 188 188 48 414 414 414 311 311 311 311 311 187 378
 378 378 378 335 335 321 321 51 51 51 51 51 246 246 246 246 188 188 188 48
 215 215 215 311 311 311 311 187 187 187 378 378 378 335 335 291 291 55 55 55
 55 55 392 392 392 188 188 188 188 188 215 215 215 215 311 311 311 187 376 376
 376 378 378 80 291 291 291 55 55 55 55 392 392 392 392 392 188 188 141 141
 141 215 215 149 149 149 149 269 376 376 376 115 115 270 270 291 350 350 55 55
 55 55 392 392 392 49 141 141 141 141 141 103 103 149 149 149 149 269 269 115
 115 115 115 270 270 350 350 350 350 350 55 84 84 84 84 84 141 141 141 141
 141 141 101 101 101 149 269 269 269 269 115 115 115 270 270 350 350 350 350 350
 350 84 84 84 84 84 84 141 141 141 141 101 101 101 101 122 122 269 269 115
 115 115 115 115 115 350 350 350 350 350 350 84 84 84 84 84 84 141 141 141
 278 101 101 101 101 122 122 240 240 115 115 115 115 115 115 350 350 350 350 350
 350 84 84 84 84 84 84 278 278 278 278 328 101 101 122 122 122 240 240 240
 115 115 115 115 115 350 350 350 350 350 350 84 84 84 84 84 418 278 278 278
 278 328 328 160 160 160 160 160 240 240 240 115 115 115 258 258 258 350 350 350
 70 70 70 84 84 274 418 278 278 278 278 424 160 160 160 160 160 160 240 240
 240 115 115 258 258 258 258 258 258 70 70 70 70 70 274 274 274 139 139 139
 283 283 283 160 160 160 160 160 293 293 293 293 293 322 322 322 322 322 322 70
 70 70 70 274 274 274 274 139 139 139 283 283 283 283 160 160 160 272 293 293
 293 293 293 322 322 322 322 322 322 105 70 70 70 274 274 274 274 274 139 283
 283 283 283 283 29 272 272 272 293 293 293 293 293 322 401 401 401 105 105 105
 105 105 105 274 274 274 274 85 85 283 283 283 283 283 29 272 272 272 1 293
 293 293 293 293 401 401 401 105 105 105 105 105 105 94 94 94 85 85 85 283
 283 283 283 283 283 272 272 272 1 293 293 293 293 293 401 401 401 105 105 105
 105 105 94 94 94 94 94 94 283 283 386 386 386 386 79 79 79 293 293 293
 293 293 293 293 401 401 401 105 105 105 105 105 94 94 94 94 94 94 94 283
 386 386 386 386 79 79 79 293 293 293 293 271 293 158 158 158 158 31 31 31
 330 330 94 94 94 94 94 303 303 386 386 386 386 386 79 79 79 293 293 293
 271 271 158 158 158 158 158 234 234 330 330 330 330 94 94 303 303 303 303 386
 386 386 386 386 17 39 39 275 275 293 271 271 158 158 158 158 234 234 234 256
 256 256 256 256 303 303 303 303 303 303 386 386 386 17 17 39 39 275 275 275
 275 275 158 158 158 158 234 234 234 256 256 256 256 100 303 303 303 303 303 303
 303 17 17 17 39 39 39 275 275 275 275 275 275 158 158 234 234 234 234 256
 256 256 256 100 100 303 303 303 303 303 303 415 17 385 385 39 275 275 275 275
 275 275 275 275 314 234 234 147 147 256 256 256 100 100 100 303 303 303 303 303
 317 415 317 385 243 243 275 275 275 275 275 275 275 202 202 202 147 147 147 147
 256 256 100 100 100 303 303 303 303 303 317 317 317 317 243 243 243 275 275 275
 275 117 117 202 202 202 147 147 147 147 65 65 100 100 100 303 324 324 324 324
 317 317 317 243 243 243 243 243 275 117 117 117 202 202 202 202 202 147 147 147
 198 148 148 148 148 324 324 324 324 324 317 317 317 243 243 243 243 243 243 117
 117 117 202 202 202 321 321 51 51 51 51 148 148 148 148 324 324 324 324 324
 317 317 317 243 243 243 243 243 27 27 27 422 422 422 321 321 321 51 51 51
 51 51 148 148 148 324 324 324 324 324 88 88 317 243 243 243 243 243 27 27
 27 378 422 422 321 321 321 51 51 51 51 51 246 246 246 246 324 324 324 48
 48 88 88 311 311 311 311 27 27 27 378 378 378 422 321 321 321 51 51 51
 51 51 246 246 246 246 188 188 188 188 215 215 215 311 311 311 311 311 187 378
 378 378 378 378 291 291 291 291 51 51 51 51 246 392 246 188 188 188 188 188
 215 215 215 215 311 311 311 187 376 376 378 378 378 378 291 291 291 291 55 55
 55 392 392 392 392 188 188 188 188 188 215 215 215 215 311 311 311 269 376 376
 376 378 378 291 291 291 291 291 55 55 55 392 392 392 392 392 188 188 141 141
 141 215 215 215 140 140 269 269 269 376 376 115 270 270 270 291 291 350 55 55
 55 392 392 392 392 392 141 141 141 141 141 141 101 101 140 140 269 269 269 269
 115 115 270 270 270 350 350 350 350 350 55 84 84 84 84 84 141 141 141 141
 141 101 101 101 101 140 140 269 269 269 269 115 270 270 270 350 350 350 350 350
 350 84 84 84 84 84 84 141 141 141 141 101 101 101 101 101 140 269 269 269
 115 115 115 115 350 350 350 350 350 350 350 84 84 84 84 84 84 418 141 141
 278 101 101 101 101 101 101 240 240 240 240 115 115 115 350 350 350 350 350 350
 350 84 84 84 84 84 418 418 418 278 278 101 101 101 160 160 160 240 240 240
 240 115 115 115 37 37 350 350 350 350 350 84 84 84 84 84 418 418 418 278
 278 424 424 160 160 160 160 160 240 240 240 240 115 37 37 37 37 350 350 244
 70 70 70 84 84 418 418 418 139 139 139 424 424 160 160 160 160 160 240 240
 240 240 37 37 37 37 322 322 244 244 70 70 70 70 274 274 418 139 139 139
 424 424 424 160 160 160 160 160 240 240 195 195 195 322 322 322 322 322 244 244
 244 70 70 274 274 274 274 139 139 139 424 424 29 29 160 160 160 272 272 293
 195 195 195 322 322 322 322 322 244 244 244 244 70 274 274 274 274 139 139 139
 283 283 29 29 29 272 272 272 272 293 293 293 293 322 322 322 322 322 384 384
 384 384 384 274 274 274 85 85 85 85 283 283 29 29 29 272 272 272 272 293
 293 293 293 370 401 401 401 384 384 384 384 384 384 38 38 38 85 85 85 85
 421 421 421 29 29 272 272 272 272 293 293 293 293 370 370 401 401 384 384 384
 384 384 38 38 38 38 38 85 85 283 421 421 421 386 29 272 272 272 293 293
 293 293 293 370 370 401 401 384 384 384 384 330 38 38 38 38 38 38 85 386
 386 386 386 386 79 219 219 219 207 207 293 293 293 158 158 181 181 181 354 384
 330 330 330 38 38 38 38 303 303 386 386 386 386 386 386 79 219 219 207 207
 207 271 158 158 158 158 234 234 234 330 330 330 330 38 38 303 303 303 303 386
 386 386 386 386 39 39 39 39 207 207 207 271 413 413 413 158 234 234 234 234
 330 330 330 330 303 303 303 303 303 303 386 386 386 386 39 39 39 39 275 275
 275 275 413 413 413 413 234 234 234 256 256 256 256 100 303 303 303 303 303 303
 303 386 385 385 39 39 39 275 275 275 275 275 413 413 413 413 234 234 234 256
 256 256 100 100 100 303 303 303 303 303 415 415 385 385 385 39 39 275 275 275
 275 275 275 413 413 413 234 234 147 256 256 256 100 100 100 303 303 303 303 303
 415 415 415 385 385 39 275 275 275 275 275 275 275 275 202 202 147 147 147 147
 65 65 100 100 100 303 303 303 303 303 415 415 415 243 243 243 243 275 275 275
 275 275 275 202 202 202 147 147 147 147 65 65 65 100 100 124 324 324 324 415
 415 415 415 243 243 243 243 243 275 275 117 117 202 202 202 202 202 363 147 147
 65 65 65 148 148 324 324 324 324 324 415 415 317 243 243 243 243 243 325 325
 325 202 202 202 202 422 422 51 51 51 51 148 148 148 148 324 324 324 324 324
 88 88 88 243 243 243 243 243 325 325 325 422 422 422 422 321 321 51 51 51
 51 51 148 148 148 324 324 324 324 324 88 88 88 243 243 243 243 243 325 325
 325 422 422 422 422 321 321 51 51 51 51 51 246 246 246 324 324 324 324 48
 88 88 88 88 348 348 348 325 325 325 378 378 422 422 422 321 321 51 51 51
 51 90 90 246 246 188 188 188 188 188 88 88 88 348 348 348 348 348 325 378
 378 378 378 422 291 291 291 291 51 51 51 90 90 392 392 188 188 188 188 188
 215 215 215 215 348 348 348 348 376 376 378 378 378 291 291 291 291 291 55 55
 55 90 392 392 392 188 188 188 188 188 215 215 215 215 348 140 348 269 376 376
 376 378 378 291 291 291 291 291 55 55 55 392 392 392 392 392 188 188 141 141
 141 215 215 215 140 140 140 269 269 269 376 378 270 270 291 291 291 291 55 55
 55 55 392 392 392 392 141 141 141 141 141 141 101 101 140 140 140 269 269 269
 269 115 270 270 270 291 350 350 350 350 55 84 84 84 84 84 141 141 141 141
 141 101 101 101 101 140 140 269 269 269 269 150 150 150 150 350 350 350 350 350
 350 298 84 84 84 84 84 418 141 141 141 101 101 101 101 184 184 269 240 240
 240 150 150 150 150 350 350 350 350 350 350 298 84 84 84 84 418 418 418 111
 278 101 101 101 101 101 101 240 240 240 240 240 150 150 150 350 350 350 350 350
 350 298 84 84 84 84 418 418 418 418 424 424 424 101 160 160 160 240 240 240
 240 240 150 37 37 37 350 350 350 350 244 84 84 84 84 418 418 418 418 418
 424 424 424 160 160 160 160 160 240 240 240 240 240 37 37 37 37 350 244 244
 244 244 70 84 126 418 418 418 139 139 424 424 424 160 160 160 160 160 240 240
 240 240 37 37 37 37 37 322 244 244 244 244 70 70 126 418 418 139 139 139
 424 424 424 160 160 160 160 160 160 240 195 195 195 322 322 322 322 322 244 244
 244 244 244 244 87 87 139 139 139 139 424 424 424 29 29 160 160 272 272 272
 195 195 195 322 322 322 322 322 244 244 244 244 244 87 87 87 85 139 139 424
 424 424 29 29 29 272 272 272 272 272 195 195 195 322 322 322 322 322 384 384
 384 384 384 87 87 87 85 85 85 85 421 421 29 29 29 272 272 272 272 272
 293 370 370 370 370 322 322 384 384 384 384 384 384 87 87 87 85 85 85 85
 421 421 421 29 29 272 272 272 272 272 293 370 370 370 370 370 401 384 384 384
 384 384 384 38 38 38 38 85 85 85 421 421 421 29 219 219 219 219 272 272
 293 370 370 370 370 370 181 384 384 384 384 330 330 38 38 38 38 38 85 85
 421 421 421 386 219 219 219 219 207 207 207 293 370 370 181 181 181 181 354 354
 330 330 330 38 38 38 38 38 303 326 386 386 386 386 219 219 219 219 207 207
 207 271 370 181 181 181 181 181 354 354 330 330 330 330 38 38 303 303 303 326
 386 386 386 386 39 39 39 219 207 207 207 207 413 413 413 181 181 181 354 354
 330 330 330 330 303 303 303 303 303 326 326 386 386 385 39 39 39 39 275 275
 275 275 413 413 413 181 181 234 234 354 330 330 330 100 303 303 303 303 303 303
 326 385 385 385 385 39 39 275 275 275 275 275 413 413 413 181 234 234 234 256
 256 256 100 100 100 303 303 303 303 303 415 415 385 385 385 39 39 275 275 275
 275 275 275 413 413 167 167 167 167 256 65 65 100 100 100 124 303 303 303 303
 415 415 415 385 385 39 275 275 275 275 275 275 275 275 202 167 167 167 147 65
 65 65 65 100 124 124 124 124 303 415 415 415 415 415 243 243 275 275 275 275
 275 275 275 202 202 202 363 363 363 363 65 65 65 100 124 124 124 124 324 415
 415 415 415 415 243 243 243 243 275 275 275 275 202 202 202 202 363 363 363 363
 65 65 65 148 124 124 124 324 324 415 415 415 415 415 243 243 243 243 325 325
 325 422 422 422 422 422 422 363 363 363 363 65 65 148 148 324 324 324 324 324
 88 88 88 243 243 243 243 243 325 325 325 422 422 422 422 422 422 363 363 363
 51 51 166 166 166 166 324 324 324 88 88 88 88 88 243 243 243 325 325 325
 325 422 422 422 422 422 422 51 51 51 51 51 166 166 166 166 387 387 387 88
 88 88 88 88 348 348 348 325 325 325 325 422 422 422 422 422 422 51 51 51
 90 90 90 166 166 166 188 188 188 88 88 88 88 348 348 348 348 348 325 325
 378 378 422 422 291 291 291 291 51 51 90 90 90 358 358 358 188 188 188 188
 215 215 212 212 348 348 348 348 21 21 189 189 189 291 291 291 291 291 55 82
 90 90 90 358 358 358 188 188 188 188 215 215 212 212 212 140 140 269 21 21
 21 189 189 291 291 291 291 291 82 82 82 358 358 358 358 358 358 188 141 141
 141 215 212 212 140 140 140 269 269 21 189 189 189 291 291 291 291 291 55 82
 55 358 358 358 358 358 358 141 141 141 141 141 101 101 140 140 140 269 269 269
 269 189 189 291 291 291 291 350 350 350 350 358 358 358 358 358 141 141 141 141
 173 173 101 101 184 184 140 269 334 334 334 150 150 150 150 150 350 350 350 350
 298 298 298 84 84 84 111 111 111 111 111 101 101 101 184 184 184 240 240 240
 240 150 150 150 150 150 350 350 350 350 298 298 298 298 84 126 418 418 111 111
 111 424 101 101 101 101 184 240 240 240 240 150 150 150 150 150 350 350 350 350
 298 298 298 84 126 126 418 418 418 111 424 424 424 101 160 160 160 240 240 240
 240 240 150 150 37 37 37 350 350 244 298 298 298 126 126 126 418 418 418 424
 424 424 424 424 160 160 160 160 240 240 240 240 150 37 37 37 37 37 244 244
 244 244 244 126 126 126 418 418 139 424 424 424 424 424 160 160 160 160 240 240
 240 240 37 37 37 37 322 322 244 244 244 244 244 332 126 126 418 139 139 424
 424 424 424 424 160 160 160 160 160 240 195 195 195 322 322 322 322 322 244 244