# vtk DataFile Version 2.0
Data set from ImportExport Version 6.5.141.ec284b7a5
ASCII

DATASET RECTILINEAR_GRID
DIMENSIONS 26 26 26
X_COORDINATES 26 float
-3.000000 3.000000 9.000000 15.000000 21.000000 27.000000 33.000000 39.000000 45.000000 51.000000 57.000000 63.000000 69.000000 75.000000 81.000000 87.000000 93.000000 99.000000 105.000000 111.000000 117.000000 
123.000000 129.000000 135.000000 141.000000 147.000000 
Y_COORDINATES 26 float
-3.000000 3.000000 9.000000 15.000000 21.000000 27.000000 33.000000 39.000000 45.000000 51.000000 57.000000 63.000000 69.000000 75.000000 81.000000 87.000000 93.000000 99.000000 105.000000 111.000000 117.000000 
123.000000 129.000000 135.000000 141.000000 147.000000 
Z_COORDINATES 26 float
-3.000000 3.000000 9.000000 15.000000 21.000000 27.000000 33.000000 39.000000 45.000000 51.000000 57.000000 63.000000 69.000000 75.000000 81.000000 87.000000 93.000000 99.000000 105.000000 111.000000 117.000000 
123.000000 129.000000 135.000000 141.000000 147.000000 
CELL_DATA 15625
SCALARS FeatureIds int 1
LOOKUP_TABLE default
 12 12 12 65 65 65 65 65 72 72 59 59 59 111 111 111 111 111 111 111
 12 12 12 12 12 12 12 12 65 65 65 65 65 72 59 59 59 59 59 111
 111 111 111 111 33 12 12 12 12 12 12 12 12 65 65 65 65 65 72 59
 59 59 59 59 41 41 41 111 33 33 33 12 12 12 12 12 12 57 57 65
 65 65 65 72 67 67 67 67 41 41 41 41 41 33 33 33 33 12 12 12
 12 57 57 57 19 19 19 19 67 67 67 67 67 41 41 41 41 41 33 33
 33 33 33 33 12 19 19 19 19 19 19 19 19 67 67 67 67 67 41 41
 41 41 41 33 33 33 33 33 33 33 19 19 19 19 19 19 19 19 19 67
 67 67 41 41 41 41 41 41 33 33 33 33 33 33 33 19 19 19 19 19
 19 19 19 19 19 67 67 41 41 41 41 41 41 41 33 33 33 33 33 52
 19 19 19 19 19 19 19 19 19 19 19 19 41 41 41 41 41 41 41 33
 33 33 91 91 91 19 19 19 19 19 19 19 19 19 19 105 105 105 41 41
 41 41 41 41 91 91 91 91 91 91 19 19 19 19 19 19 19 19 19 105
 105 105 105 41 41 41 41 41 41 91 91 91 91 91 91 19 19 19 19 19
 19 19 19 19 105 105 105 105 105 41 41 41 41 91 91 91 91 91 91 91
 91 19 19 19 19 19 19 19 19 105 105 105 105 105 105 41 41 78 78 91
 91 91 91 91 91 91 91 19 19 19 19 19 19 19 105 105 105 105 105 39
 39 78 78 78 91 91 91 91 91 91 91 18 18 18 19 19 19 35 35 35
 105 105 39 39 39 39 39 78 78 91 91 91 91 91 91 113 113 113 113 35
 35 35 35 35 35 35 39 39 39 39 39 39 78 78 91 91 91 91 91 91
 113 113 113 113 113 35 35 35 35 35 35 39 39 39 39 39 39 78 78 58
 58 58 58 58 91 113 113 113 113 113 35 35 35 35 35 35 110 110 110 110
 111 111 111 58 58 58 58 58 58 113 113 113 113 113 113 35 35 35 35 35
 110 110 110 110 110 111 111 111 88 88 88 58 58 58 113 113 113 113 113 113
 35 35 35 35 35 110 110 110 110 110 111 111 111 88 88 88 58 58 58 113
 113 113 113 113 113 35 77 35 35 35 110 110 110 110 110 111 111 111 111 88
 88 88 12 12 82 82 82 113 113 113 77 77 77 77 110 110 110 110 110 111
 111 111 111 111 111 88 12 12 12 82 82 82 82 113 77 77 77 77 77 85
 110 110 110 111 111 111 111 111 111 111 12 12 12 12 82 82 82 82 82 77
 77 77 77 85 85 85 110 111 111 111 111 111 111 111 111 12 12 12 12 12
 12 12 12 12 12 77 77 77 72 72 72 111 111 111 111 111 111 111 111 111
 12 12 12 12 12 12 12 12 65 65 65 65 72 72 72 72 59 59 59 111
 111 111 111 111 12 12 12 12 12 12 12 12 12 65 65 65 65 72 72 72
 59 59 59 59 111 111 111 111 33 33 12 12 12 12 12 12 12 57 57 65
 65 65 72 72 72 72 59 59 59 41 41 41 33 33 33 33 12 12 12 12
 12 57 57 57 57 57 57 72 72 72 67 67 67 67 41 41 41 33 33 33
 33 33 33 12 12 12 57 57 57 57 57 57 19 67 67 67 67 67 67 41
 41 41 33 33 33 33 33 33 33 33 19 19 19 19 19 19 19 19 67 67
 67 67 67 41 41 41 41 41 33 33 33 33 33 33 33 19 19 19 19 19
 19 19 19 67 67 67 67 67 41 41 41 41 41 33 33 33 33 33 33 52
 19 19 19 19 19 19 19 19 19 67 67 67 41 41 41 41 41 41 41 33
 33 33 33 33 52 19 19 19 19 19 19 19 19 19 19 19 41 41 41 41
 41 41 41 41 33 33 33 33 52 52 19 19 19 19 19 19 19 19 19 19
 105 105 105 41 41 41 41 41 41 41 91 91 91 91 91 19 19 19 19 19
 19 19 19 19 105 105 105 105 105 41 41 41 41 41 91 91 91 91 91 91
 18 19 19 19 19 19 19 19 19 105 105 105 105 105 41 41 41 41 91 91
 91 91 91 91 91 18 18 18 19 19 19 19 19 19 105 105 105 105 105 41
 41 41 78 78 91 91 91 91 91 18 18 18 18 18 19 19 19 62 62 105
 105 105 105 105 105 41 41 78 78 91 91 91 91 91 18 18 18 18 18 18
 62 62 62 62 62 105 105 39 39 39 39 37 37 78 91 91 91 91 91 18
 113 113 113 113 113 62 62 62 62 62 62 39 39 39 39 39 37 37 58 58
 58 58 58 58 18 113 113 113 113 113 62 62 62 62 62 62 39 39 39 39
 39 111 37 58 58 58 58 58 58 113 113 113 113 113 113 113 35 35 35 35
 110 110 110 110 110 110 111 111 88 58 58 58 58 58 113 113 113 113 113 113
 113 35 35 35 35 110 110 110 110 110 110 111 111 88 88 58 58 58 58 113
 113 113 113 113 113 113 35 35 35 85 110 110 110 110 110 110 111 111 88 88
 88 58 58 58 113 113 113 113 113 113 113 77 77 85 85 110 110 110 110 110
 110 111 111 88 88 88 58 58 58 113 82 113 113 113 113 77 77 77 85 85
 85 110 110 110 110 110 111 111 111 111 88 12 12 12 12 12 82 113 113 77
 77 77 77 85 85 85 85 110 110 110 111 111 111 111 111 12 12 12 12 12
 12 12 12 113 77 77 77 77 85 85 85 85 110 111 111 111 111 111 111 111
 12 12 12 12 12 12 12 12 12 12 77 77 77 72 72 72 85 111 111 111
 111 111 111 111 111 12 12 12 12 12 12 12 12 65 65 65 65 72 72 72
 72 72 59 59 111 111 111 111 33 33 12 12 12 12 12 12 12 65 65 65
 65 65 72 72 72 72 59 59 59 59 41 111 111 33 33 33 12 12 12 12
 12 57 57 57 57 65 65 72 72 72 72 72 67 67 41 41 41 33 33 33
 33 33 12 12 12 57 57 57 57 57 57 57 72 72 67 67 67 67 67 41
 41 41 33 33 33 33 33 33 33 33 57 57 57 57 57 57 57 57 67 67
 67 67 67 67 41 41 41 33 33 33 33 33 33 33 33 96 57 57 57 57
 57 19 19 67 67 67 67 67 67 41 41 41 33 33 33 33 33 33 33 33
 96 19 19 19 19 19 19 19 67 67 67 67 67 41 41 41 41 41 33 33
 33 33 33 33 52 19 19 19 19 19 19 19 19 19 67 67 67 67 41 41
 41 41 41 33 33 33 33 33 52 52 19 19 19 19 19 19 19 19 19 19
 67 67 41 41 41 41 41 41 41 33 33 33 52 52 52 19 19 19 19 19
 19 19 19 19 19 105 105 105 41 41 41 41 41 41 106 106 106 106 106 52
 19 19 19 19 19 19 19 19 19 105 105 105 105 105 41 41 41 41 41 106
 106 106 106 106 18 18 19 19 19 19 19 19 19 19 105 105 105 105 105 41
 41 41 41 106 106 106 106 106 106 18 18 18 18 18 19 19 19 19 19 105
 105 105 105 105 105 41 41 41 106 106 106 106 106 106 18 18 18 18 18 19
 19 62 62 62 62 105 105 105 105 105 41 37 37 37 106 106 106 106 18 18
 18 18 18 18 18 62 62 62 62 62 13 13 39 39 39 39 37 37 37 58
 58 58 58 18 18 18 18 113 113 113 62 62 62 62 62 13 13 39 39 39
 39 37 37 37 58 58 58 58 58 18 113 113 113 113 113 62 62 62 62 62
 13 13 39 39 39 39 37 37 58 58 58 58 58 58 58 113 113 113 113 113
 113 62 62 62 62 110 110 110 110 110 110 37 37 58 58 58 58 58 58 113
 113 113 113 113 113 113 62 62 62 110 110 110 110 110 110 110 110 58 58 58
 58 58 58 58 113 113 113 113 113 113 113 113 85 85 85 110 110 110 110 110
 110 110 111 88 88 58 58 58 58 113 113 113 113 113 113 113 77 85 85 85
 85 110 110 110 110 110 110 111 88 88 58 58 58 58 113 113 113 113 113 113
 77 77 85 85 85 85 85 110 110 110 110 111 111 111 88 58 58 12 12 12
 49 49 113 113 113 77 77 85 85 85 85 85 110 110 110 110 111 111 111 111
 12 12 12 12 12 12 12 12 113 113 77 77 85 85 85 85 85 110 110 111
 111 111 111 111 111 12 12 12 12 12 12 12 12 12 15 15 77 72 72 72
 72 72 111 111 111 111 111 111 111 12 12 12 12 12 12 12 12 42 42 42
 65 72 72 72 72 72 72 72 59 54 54 111 33 33 49 49 49 49 49 49
 12 42 42 42 42 42 72 72 72 72 72 72 72 59 54 54 54 33 33 33
 49 49 49 49 49 12 57 57 57 57 57 72 72 72 72 72 72 67 67 54
 54 54 33 33 33 33 33 49 49 49 57 57 57 57 57 57 57 72 72 67
 67 67 67 67 67 41 41 33 33 33 33 33 33 33 33 96 57 57 57 57
 57 57 72 67 67 67 67 67 67 41 41 41 33 33 33 33 33 33 33 33
 96 96 57 57 57 57 57 57 67 67 67 67 67 67 41 41 41 33 33 33
 33 33 33 33 33 96 96 96 19 19 19 19 19 67 67 67 67 67 67 41
 41 41 33 33 33 33 33 33 52 52 96 96 96 19 19 19 19 19 19 67
 67 67 67 41 41 41 41 41 33 33 33 33 52 52 52 96 96 96 19 19
 19 19 19 19 19 67 67 67 41 41 41 41 41 41 33 106 106 52 52 52
 96 19 19 19 19 19 19 19 19 19 105 105 105 41 41 41 41 41 106 106
 106 106 106 106 52 96 19 19 19 19 19 19 19 19 19 105 105 105 105 41
 41 41 41 106 106 106 106 106 106 106 18 18 19 19 19 19 19 19 19 19
 105 105 105 105 41 41 41 106 106 106 106 106 106 106 18 18 18 18 18 19
 19 19 19 62 105 105 105 105 105 84 98 98 98 106 106 106 106 106 106 18
 18 18 18 18 18 40 62 62 62 62 105 105 105 84 84 98 98 98 98 106
 106 106 106 106 18 18 18 18 18 18 62 62 62 62 62 13 13 13 39 39
 37 37 37 37 58 58 58 58 18 18 18 18 18 113 113 62 62 62 62 62
 13 13 13 39 39 37 37 37 37 58 58 58 58 58 18 113 113 113 113 113
 62 62 62 62 62 13 13 13 39 39 37 37 37 58 58 58 58 58 58 58
 113 113 113 113 113 113 62 62 62 62 13 110 110 110 110 110 37 37 58 58
 58 58 58 58 113 113 113 113 113 113 113 62 62 62 62 110 110 110 110 110
 110 110 58 58 58 58 58 58 58 113 113 113 113 113 113 113 62 85 85 85
 85 110 110 110 110 110 110 58 58 58 58 58 58 58 113 113 113 113 113 113
 113 77 85 85 85 85 85 110 110 110 110 110 111 88 58 58 58 58 58 113
 113 113 113 113 113 113 77 85 85 85 85 85 110 110 110 110 111 111 111 58
 58 58 49 49 49 49 49 113 113 113 15 15 85 85 85 85 85 85 110 110
 110 111 111 111 49 49 49 49 49 49 49 49 113 113 15 15 15 85 85 85
 85 85 85 110 111 111 111 111 111 49 49 49 49 49 49 49 49 49 15 15
 15 15 72 72 72 72 72 72 111 111 111 111 111 111 49 49 49 49 49 49
 49 49 42 42 42 42 15 72 72 72 72 72 72 54 54 54 54 33 33 49
 49 49 49 49 49 49 49 42 42 42 42 72 72 72 72 72 72 72 54 54
 54 54 33 33 33 49 49 49 49 49 49 42 42 42 42 57 57 72 72 72
 72 72 67 54 54 54 54 33 33 33 33 33 49 49 49 57 57 57 57 57
 57 57 72 72 72 67 67 67 54 54 54 54 33 33 33 33 33 33 33 49
 96 57 57 57 57 57 57 57 67 67 67 67 67 67 54 54 54 33 33 33
 33 33 33 33 96 96 96 57 57 57 57 57 57 67 67 67 67 67 67 54
 41 41 33 33 33 33 33 33 33 96 96 96 96 96 57 19 19 19 67 67
 67 67 67 67 41 41 41 33 33 33 33 33 33 52 96 96 96 96 96 19
 19 19 19 19 67 67 67 67 67 41 41 41 41 33 33 33 33 33 52 96
 96 96 96 96 19 19 19 19 19 19 67 67 67 41 41 41 41 41 41 106
 106 106 106 52 96 96 96 96 19 19 19 19 19 19 19 67 105 67 41 41
 41 41 41 106 106 106 106 106 106 106 18 18 19 19 19 19 19 19 19 19
 105 105 105 84 84 41 41 98 106 106 106 106 106 106 106 18 18 18 18 19
 19 19 19 19 40 105 105 84 84 84 98 98 98 106 106 106 106 106 106 18
 18 18 18 18 18 40 40 40 40 40 40 84 84 84 84 98 98 98 98 106
 106 106 106 106 18 18 18 18 18 18 40 40 62 40 40 40 84 84 84 84
 98 98 98 98 106 106 106 106 106 18 18 18 18 18 40 40 62 62 62 40
 40 13 13 84 84 98 101 101 101 98 106 106 106 106 18 18 18 18 18 40
 40 62 62 62 40 40 13 13 84 101 101 101 101 101 58 58 58 58 58 18
 113 113 113 113 113 40 62 62 62 40 40 13 13 84 101 101 101 101 101 58
 58 58 58 58 58 113 113 113 113 113 113 62 62 40 40 40 40 110 110 110
 101 101 101 58 58 58 58 58 58 113 113 113 113 113 113 113 40 40 40 40
 40 110 80 80 80 80 80 101 58 58 58 58 58 58 113 113 113 113 113 113
 113 40 85 85 85 85 85 80 80 80 80 80 58 58 58 58 58 58 58 113
 113 113 113 113 113 113 113 85 85 85 85 85 80 80 80 80 80 58 58 58
 58 58 58 49 49 49 113 113 113 113 15 15 85 85 85 85 85 80 80 80
 80 80 80 58 58 58 49 49 49 49 49 49 113 113 15 15 15 15 85 85
 85 85 80 80 80 80 80 80 97 49 49 49 49 49 49 49 49 49 15 15
 15 15 15 85 85 85 85 80 80 80 80 80 80 49 49 49 49 49 49 49
 49 49 49 15 15 15 15 15 72 72 72 72 80 80 80 80 80 111 49 49
 49 49 49 49 49 49 49 49 42 42 15 15 15 72 72 72 72 54 54 54
 54 54 73 73 73 49 49 49 49 49 49 20 42 42 42 31 31 72 72 72
 72 72 54 54 54 54 54 54 73 73 33 49 49 49 49 20 20 31 31 31
 31 31 14 72 72 72 72 54 54 54 54 54 54 33 33 33 49 49 49 49
 20 57 57 57 31 31 31 14 14 14 67 67 54 54 54 54 54 54 33 33
 33 33 33 49 49 96 96 57 57 57 31 31 14 14 67 67 67 67 54 54
 54 54 33 33 33 33 33 33 33 96 96 96 96 57 57 57 57 57 67 67
 67 67 67 54 54 54 54 33 33 33 33 33 33 33 96 96 96 96 96 57
 19 19 19 67 67 67 67 67 67 54 54 54 33 33 33 33 33 33 52 96
 96 96 96 96 19 19 19 19 19 67 67 67 67 67 54 54 41 41 33 33
 33 33 33 52 96 96 96 96 96 19 19 19 19 19 19 67 67 67 41 41
 41 41 41 106 106 106 106 106 106 96 96 96 96 96 19 19 19 19 19 22
 64 64 64 84 84 41 41 106 106 106 106 106 106 106 106 18 18 18 19 19
 19 19 19 19 40 64 64 84 84 84 98 98 98 106 106 106 106 106 106 106
 18 18 18 18 40 40 40 40 40 40 40 84 84 84 84 98 98 98 98 106
 106 106 106 106 106 18 18 18 18 40 40 40 40 40 40 40 84 84 84 84
 98 98 98 98 106 106 106 106 106 18 18 18 18 18 40 40 40 40 40 40
 40 84 84 84 84 98 98 98 98 98 106 106 106 106 18 18 18 18 18 40
 40 40 40 40 40 40 40 84 84 84 98 101 101 98 98 106 106 106 106 18
 18 18 18 18 40 40 40 40 40 40 40 40 84 84 84 101 101 101 101 101
 58 58 58 58 18 113 113 113 113 40 40 40 40 40 40 40 40 40 84 101
 101 101 101 101 58 58 58 58 58 113 113 113 113 113 113 40 40 40 40 40
 40 40 40 80 80 101 101 101 58 58 58 58 58 58 113 113 113 113 113 113
 40 40 40 40 40 40 80 80 80 80 80 80 101 58 58 58 58 58 58 113
 113 113 113 113 113 113 40 40 40 85 85 80 80 80 80 80 80 80 58 58
 58 58 58 58 113 49 113 113 113 113 113 40 85 85 85 85 80 80 80 80
 80 80 80 97 58 58 58 49 49 49 49 49 113 113 113 15 15 15 85 85
 85 80 80 80 80 80 80 80 97 97 58 49 49 49 49 49 49 49 113 15
 15 15 15 85 85 85 80 80 80 80 80 80 80 97 97 49 49 49 49 49
 49 49 49 15 15 15 15 15 15 85 85 80 80 80 80 80 80 80 97 49
 49 49 49 49 49 49 49 49 15 15 15 15 15 15 72 72 80 80 80 80
 80 80 80 97 49 49 49 49 49 49 20 20 20 20 15 15 15 15 14 14
 14 14 80 80 54 54 54 73 73 73 49 49 49 49 49 20 20 20 31 31
 31 31 14 14 14 14 14 54 54 54 54 54 54 73 73 73 49 49 49 49
 20 20 31 31 31 31 31 14 14 14 14 14 54 54 54 54 54 54 73 73
 73 49 49 49 49 20 20 31 31 31 31 31 14 14 14 14 14 54 54 54
 54 54 54 33 33 33 33 49 49 49 96 96 31 31 31 31 31 14 14 14
 14 14 54 54 54 54 54 54 33 33 33 33 33 33 96 96 96 96 31 31
 31 31 14 14 14 67 67 54 54 54 54 54 54 33 33 33 33 33 96 96
 96 96 96 96 31 31 31 14 14 14 67 67 54 54 54 54 54 54 33 33
 33 33 33 96 96 96 96 96 96 96 22 22 22 22 14 67 67 54 54 54
 54 68 68 68 68 68 33 106 96 96 96 96 96 96 22 22 22 22 22 22
 64 64 64 54 54 68 68 68 68 68 106 106 106 106 96 96 96 96 96 22
 22 22 22 22 22 64 64 64 64 84 68 68 68 68 106 106 106 106 106 106
 18 92 92 96 22 22 22 22 22 22 64 64 64 84 84 98 98 98 98 106
 106 106 106 106 106 18 18 18 18 40 40 40 40 40 40 40 84 84 84 84
 98 98 98 98 106 106 106 106 106 106 18 18 18 18 40 40 40 40 40 40
 40 84 84 84 84 98 98 98 98 98 106 106 106 106 106 18 18 18 18 40
 40 40 40 40 40 40 84 84 84 84 98 98 98 98 98 106 106 106 106 18
 18 18 18 40 40 40 40 40 40 40 40 40 84 84 84 98 98 98 98 98
 98 106 106 106 18 18 18 18 40 40 40 40 40 40 40 40 40 84 84 98
 98 98 101 101 98 98 58 58 58 18 113 113 113 40 40 40 40 40 40 40
 40 40 84 84 98 98 101 101 101 98 58 58 58 58 113 4 4 113 113 40
 40 40 40 40 40 40 40 80 80 80 80 101 101 101 58 58 58 58 58 113
 4 4 4 113 40 40 40 40 40 40 40 80 80 80 80 80 80 101 97 58
 58 58 58 58 4 4 4 4 113 113 40 40 40 40 40 80 80 80 80 80
 80 80 97 97 97 97 97 58 49 4 4 4 4 113 113 40 40 40 85 85
 80 80 80 80 80 80 80 97 97 97 97 97 49 49 49 49 49 4 113 15
 15 15 15 85 85 80 80 80 80 80 80 80 97 97 97 97 49 49 49 49
 49 49 49 49 15 15 15 15 15 85 80 80 80 80 80 80 80 97 97 97
 97 49 49 49 49 49 49 49 15 15 15 15 15 15 85 80 80 80 80 80
 80 80 97 97 97 49 49 49 49 49 49 49 49 15 15 15 15 15 15 72
 80 80 80 80 80 80 80 97 97 49 49 49 49 49 49 20 20 20 20 31
 15 14 14 14 14 14 14 80 80 54 54 54 73 73 73 49 49 49 49 49
 20 20 20 31 31 31 31 14 14 14 14 14 54 54 54 54 54 54 73 73
 73 49 49 49 20 20 20 20 31 31 31 31 14 14 14 14 14 54 54 54
 54 54 54 73 73 73 49 49 49 20 20 20 31 31 31 31 31 14 14 14
 14 14 54 54 54 54 54 54 93 93 93 93 93 49 20 96 96 31 31 31
 31 31 14 14 14 14 14 54 54 54 54 54 54 93 93 93 93 93 93 96
 96 96 96 31 31 31 31 14 14 14 14 14 54 54 54 54 54 93 93 93
 93 93 93 93 96 96 96 96 96 31 31 22 14 14 14 14 14 54 54 54
 54 54 68 68 93 93 93 93 93 96 96 96 96 96 22 22 22 22 22 22
 14 14 54 54 54 54 68 68 68 68 68 93 93 93 96 96 96 96 96 22
 22 22 22 22 22 64 64 79 79 54 68 68 68 68 68 68 106 106 106 96
 92 92 92 92 22 22 22 22 22 22 64 64 64 79 79 68 68 68 68 68
 68 106 106 106 92 92 92 92 92 22 22 22 22 22 22 64 64 64 84 84
 98 98 68 68 68 106 106 106 106 92 92 92 92 92 40 22 22 22 22 22
 64 84 84 84 84 98 98 98 98 98 106 106 106 106 92 92 92 92 92 40
 40 40 40 40 40 40 84 84 84 84 98 98 98 98 98 106 106 106 106 106
 18 18 18 40 40 40 40 40 40 40 40 84 84 84 84 98 98 98 98 98
 106 106 106 106 106 100 100 100 40 40 40 40 40 40 40 40 40 84 84 84
 98 98 98 98 98 98 106 106 106 106 100 100 100 40 40 40 40 40 40 40
 40 40 84 84 98 98 98 98 98 98 98 106 106 106 100 100 100 100 40 40
 40 40 40 40 40 40 40 84 84 98 98 98 98 98 98 98 58 58 58 100
 4 4 4 40 40 40 40 40 40 40 40 40 80 80 80 98 98 98 98 98
 58 58 58 58 4 4 4 4 4 40 40 40 40 40 40 40 80 80 80 80
 80 98 97 97 97 97 97 58 4 4 4 4 4 4 40 40 40 40 40 40
 80 80 80 80 80 80 80 97 97 97 97 97 49 49 49 4 4 4 4 4
 40 40 40 40 40 80 80 80 80 80 80 80 97 97 97 97 97 49 49 49
 49 4 4 4 15 15 15 15 85 85 80 80 80 80 80 80 80 97 97 97
 97 97 49 49 49 49 49 49 49 15 15 15 15 15 85 80 80 80 80 80
 80 80 97 97 97 97 49 49 49 49 49 49 49 49 15 15 15 15 15 80
 80 80 80 80 80 80 80 97 97 97 49 49 49 49 49 49 49 49 49 15
 15 15 15 15 14 80 80 80 80 80 80 80 97 97 97 49 49 49 49 49
 20 20 20 31 31 14 14 14 14 14 14 14 80 80 54 54 54 73 73 73
 49 49 49 49 49 20 20 20 31 31 31 14 14 14 14 14 14 14 54 54
 54 54 93 73 73 73 49 49 49 49 20 20 31 31 31 31 31 14 14 14
 14 14 54 54 54 54 54 93 93 93 93 93 49 49 49 20 20 31 31 31
 31 31 14 14 14 14 14 54 54 54 54 54 93 93 93 93 93 93 93 93
 96 96 31 31 31 31 31 14 14 14 14 14 54 54 54 54 54 93 93 93
 93 93 93 93 93 96 96 96 31 31 31 14 14 14 14 14 14 54 54 54
 54 54 93 93 93 93 93 93 93 93 96 96 96 38 38 38 22 14 14 14
 14 14 54 54 54 54 68 68 93 93 93 93 93 93 93 96 96 96 38 38
 22 22 22 22 22 14 14 54 54 54 68 68 68 68 68 68 93 93 93 93
 95 95 95 38 22 22 22 22 22 22 22 64 79 79 54 68 68 68 68 68
 68 68 106 106 92 95 95 95 92 22 22 22 22 22 22 64 64 79 79 79
 68 68 68 68 68 68 68 106 106 92 92 92 92 92 22 22 22 22 22 22
 22 64 64 84 68 68 68 68 68 68 68 106 106 106 92 92 92 92 92 22
 22 22 22 22 22 8 8 8 84 84 98 98 98 98 68 106 106 106 106 92
 92 92 92 92 40 40 40 40 40 40 40 84 84 84 84 98 98 98 98 98
 106 106 106 106 92 92 92 92 40 40 40 40 40 40 40 40 40 84 84 84
 98 98 98 98 98 98 106 106 106 92 100 100 100 40 40 40 40 40 40 40
 23 40 84 84 98 98 98 98 98 98 98 106 106 106 100 100 100 100 100 40
 40 40 40 40 23 23 40 84 84 98 98 98 98 98 98 98 106 106 100 100
 100 100 100 100 40 40 40 40 40 40 40 40 40 5 98 98 98 98 98 98
 98 58 58 100 100 100 4 4 40 40 40 40 40 40 40 40 40 5 5 5
 5 5 98 98 98 97 97 97 100 100 4 4 4 4 40 40 40 40 40 40
 40 80 80 5 5 5 5 97 97 97 97 97 97 49 4 4 4 4 4 40
 40 40 40 40 40 80 80 80 80 5 5 5 97 97 97 97 97 97 49 49
 49 4 4 4 4 40 40 40 40 40 80 80 80 80 80 80 80 97 97 97
 97 97 97 49 49 49 49 4 4 4 15 15 15 85 80 80 80 80 80 80
 80 97 97 97 97 97 97 49 49 49 49 49 49 49 15 15 15 15 15 80
 80 80 80 80 80 80 97 97 97 97 97 97 49 49 49 49 49 49 49 15
 15 15 15 14 80 80 80 80 80 80 80 97 97 97 97 97 49 49 49 49
 49 49 49 49 15 15 15 15 14 14 14 80 80 80 80 80 97 97 97 97
 49 49 49 49 49 49 20 20 31 31 14 14 14 14 14 14 14 14 80 54
 54 54 93 73 49 49 49 49 49 49 20 20 20 31 31 14 14 14 14 14
 14 14 14 54 54 54 54 93 93 93 93 49 49 49 49 20 20 31 31 31
 31 14 14 14 14 14 14 14 54 54 54 54 93 93 93 93 93 93 49 49
 104 31 31 31 31 31 14 14 14 14 14 14 14 54 54 54 93 93 93 93
 93 93 93 93 93 104 27 27 31 31 31 14 14 14 14 14 14 14 54 54
 54 93 93 93 93 93 93 93 93 93 96 96 38 38 38 38 14 14 14 14
 14 14 14 54 54 54 93 93 93 93 93 93 93 93 93 96 96 38 38 38
 38 22 22 14 14 14 14 14 54 54 54 93 93 93 93 93 93 93 93 93
 95 95 38 38 38 22 22 22 22 22 14 14 14 54 54 68 68 68 68 68
 93 93 93 93 93 95 95 95 38 22 22 22 22 22 22 22 64 79 79 68
 68 68 68 68 68 68 68 93 93 92 95 95 95 92 22 22 22 22 22 22
 22 64 79 79 79 68 68 68 68 68 68 68 106 92 92 92 92 92 92 22
 22 22 22 22 22 22 8 8 79 68 68 68 68 55 55 68 68 106 92 92
 92 92 92 92 92 22 22 22 22 22 8 8 8 84 98 98 98 98 55 55
 68 106 106 92 92 92 92 92 92 40 40 40 40 40 40 40 8 8 84 98
 98 98 98 98 98 98 106 106 92 92 92 92 92 92 40 40 40 40 40 40
 23 23 84 84 98 98 98 98 98 98 98 106 106 92 92 100 100 100 100 40
 40 40 40 40 23 23 23 84 84 98 98 98 98 98 98 98 61 61 100 100
 100 100 100 100 40 40 40 40 23 23 23 23 23 5 98 98 98 98 98 98
 98 61 61 100 100 100 100 100 100 40 40 40 40 40 23 23 40 5 5 5
 5 98 98 98 98 61 61 61 100 100 100 100 100 100 40 40 40 40 40 40
 40 40 5 5 5 5 5 98 98 97 97 97 97 100 100 4 4 4 4 40
 40 40 40 40 40 40 5 5 5 5 5 5 97 97 97 97 97 97 49 100
 49 4 4 4 40 40 40 40 40 40 80 80 5 5 5 5 5 97 97 97
 97 97 97 49 49 49 4 4 4 4 32 32 32 32 32 80 80 80 80 5
 5 5 97 97 97 97 97 97 49 49 49 11 11 11 11 32 32 32 32 80
 80 80 80 80 80 80 97 97 97 97 97 97 49 49 49 49 11 11 11 11
 32 32 32 32 80 80 80 80 80 80 80 97 97 97 97 97 97 49 49 49
 49 49 11 11 15 15 15 14 14 80 80 80 80 80 80 80 97 97 97 97
 97 49 49 49 49 49 49 49 49 15 15 15 14 14 14 14 80 80 80 80
 80 97 97 97 97 49 49 49 49 49 49 20 20 20 14 14 14 14 14 14
 14 14 14 80 26 54 93 93 93 49 49 49 49 49 49 104 104 104 104 31
 14 14 14 14 14 14 14 14 54 54 54 93 93 93 93 93 49 49 49 49
 104 104 104 31 31 14 14 14 14 14 14 14 14 14 54 54 93 93 93 93
 93 93 93 93 49 104 104 27 31 31 14 14 14 14 14 14 14 14 14 54
 54 93 93 93 93 93 93 93 93 93 104 27 27 27 27 14 14 14 14 14
 14 14 14 14 54 93 93 93 93 93 93 93 93 93 93 104 27 27 27 27
 14 14 14 14 14 14 14 14 14 54 93 93 93 93 93 93 93 93 93 93
 27 27 27 27 38 38 22 22 14 14 14 14 14 14 54 93 93 93 93 93
 93 93 93 93 93 95 107 107 107 38 22 22 22 22 22 22 14 14 14 93
 93 93 93 93 93 93 93 93 93 93 95 95 95 107 22 22 22 22 22 22
 22 22 79 79 68 68 68 68 68 68 68 93 93 93 92 95 95 95 92 22
 22 22 22 22 22 22 22 79 79 68 68 68 55 55 55 68 68 93 92 92
 92 92 92 92 22 22 22 22 22 22 22 8 8 79 68 68 68 55 55 55
 55 68 68 92 92 92 92 92 92 92 22 22 22 22 22 8 8 8 8 98
 68 68 55 55 55 55 106 106 92 92 92 92 92 92 40 40 40 40 40 40
 40 8 8 60 60 98 98 98 98 55 55 106 106 92 92 92 92 92 92 40
 40 40 40 40 40 23 23 60 60 98 98 98 98 98 98 98 61 61 92 92
 100 100 100 100 40 40 40 40 40 23 23 23 23 60 98 98 98 98 98 98
 61 61 61 61 100 100 100 100 100 40 40 40 40 23 23 23 23 23 5 5
 98 98 98 98 98 61 61 61 61 100 100 100 100 100 40 40 40 40 40 23
 23 40 5 5 5 5 98 98 98 61 61 61 61 61 100 100 100 100 100 40
 40 40 40 40 40 40 40 5 5 5 5 5 5 97 97 61 61 61 61 100
 100 4 4 4 40 32 32 32 32 40 40 5 5 5 5 5 5 5 97 97
 97 97 47 47 47 11 11 11 4 32 32 32 32 32 32 32 5 5 5 5
 5 5 97 97 97 97 97 47 47 47 11 11 11 11 32 32 32 32 32 32
 80 80 5 5 5 5 5 97 97 97 97 97 97 47 49 11 11 11 11 11
 32 32 32 32 32 80 80 80 80 80 5 97 97 97 97 97 97 49 49 49
 11 11 11 11 11 32 32 32 32 32 80 80 80 80 80 80 97 97 97 97
 97 97 49 49 49 49 11 11 11 11 32 32 32 32 14 80 80 80 80 80
 80 97 97 97 97 97 49 49 49 49 49 11 11 11 15 15 14 14 14 14
 14 80 80 80 80 80 97 97 97 97 49 49 49 49 49 104 104 104 104 103
 14 14 14 14 14 14 14 14 26 26 26 24 24 24 24 49 49 49 49 49
 104 104 104 104 104 14 14 14 14 14 14 14 14 26 26 93 93 93 93 93
 93 93 49 49 104 104 104 104 104 104 14 14 14 14 14 14 14 14 14 26
 93 93 93 93 93 93 93 93 93 104 104 104 104 104 27 14 14 14 14 14
 14 14 14 14 54 93 93 93 93 93 93 93 93 93 93 104 104 27 27 27
 14 14 14 14 14 14 14 14 14 54 93 93 93 93 93 93 93 93 93 93
 104 104 27 27 27 27 14 14 14 14 14 14 14 21 21 93 93 93 93 93
 93 93 93 93 93 107 107 107 27 107 107 22 22 14 14 14 14 14 21 93
 93 93 93 93 93 93 93 93 93 93 107 107 107 107 107 107 22 22 22 22
 22 14 14 21 93 93 93 93 93 93 93 93 93 93 93 95 107 107 107 107
 22 22 22 22 22 22 22 79 79 68 68 68 68 68 93 93 93 93 93 93
 92 92 107 107 107 22 22 22 22 22 22 22 60 60 60 68 68 55 55 55
 68 93 93 92 92 92 92 92 92 22 22 22 22 22 22 22 22 60 60 60
 68 55 55 55 55 55 68 71 92 92 92 92 92 92 92 22 22 22 22 22
 8 8 60 60 60 60 55 55 55 55 55 55 71 92 92 92 92 92 92 92
 40 40 40 40 40 40 60 60 60 60 60 60 60 55 55 55 61 61 92 92
 92 92 92 92 40 40 40 40 40 40 23 60 60 60 60 60 60 60 60 61
 61 61 61 61 92 44 44 44 44 40 40 40 40 40 23 23 23 60 60 60
 60 60 60 60 61 61 61 61 61 44 44 100 100 100 40 40 40 40 40 23
 23 23 60 60 60 60 60 60 61 61 61 61 61 61 44 44 100 100 100 40
 40 40 40 40 23 40 40 5 5 5 5 60 60 61 61 61 61 61 61 44
 100 100 100 32 32 32 32 32 32 32 32 5 5 5 5 5 5 5 97 61
 61 61 61 61 44 100 4 4 32 32 32 32 32 32 32 32 5 5 5 5
 53 53 97 97 97 48 48 47 47 47 11 11 11 11 32 32 32 32 32 32
 32 5 5 5 5 53 53 97 97 97 97 48 47 47 47 11 11 11 11 32
 32 32 32 32 32 32 80 5 5 5 53 53 97 97 97 97 97 47 47 47
 11 11 11 11 32 32 32 32 32 32 32 80 80 5 5 5 97 97 97 97
 97 97 49 49 11 11 11 11 11 11 32 32 32 32 32 32 80 80 80 80
 80 97 97 97 97 97 97 49 49 49 11 11 11 11 11 32 32 32 32 32
 32 80 70 70 70 80 97 97 97 97 97 49 49 49 49 49 11 11 11 11
 9 9 9 14 14 14 80 70 70 70 70 97 97 97 97 49 49 49 49 49
 104 104 104 104 103 103 103 14 14 14 14 14 26 26 26 26 24 24 24 24
 49 49 49 49 104 104 104 104 104 104 103 14 14 14 14 14 14 26 26 26
 26 24 24 24 93 93 93 93 104 104 104 104 104 104 104 104 14 14 14 14
 14 14 26 26 26 26 93 93 93 93 93 93 93 93 104 104 104 104 104 104
 104 14 14 14 14 14 14 14 26 26 93 93 93 93 93 93 93 93 93 104
 104 104 104 27 27 14 14 14 14 14 14 14 21 21 21 93 93 93 93 93
 93 93 93 93 104 104 104 107 27 107 107 14 14 14 14 14 14 21 21 21
 93 93 93 93 93 93 93 93 93 104 107 107 107 107 107 107 22 22 14 14
 14 14 21 21 21 93 93 93 93 93 93 93 93 93 104 107 107 107 107 107
 107 22 22 22 22 14 14 21 21 21 93 93 93 93 93 93 93 93 93 93
 107 107 107 107 107 107 22 22 22 22 22 22 21 60 60 93 93 93 93 93
 93 93 93 93 93 92 107 107 107 107 107 22 22 22 22 22 22 60 60 60
 60 60 55 55 93 93 93 93 71 71 92 92 92 107 107 22 22 22 22 22
 22 60 60 60 60 60 60 55 55 55 55 71 71 71 71 92 92 92 92 30
 30 30 30 30 30 30 60 60 60 60 60 60 60 55 55 55 71 71 71 71
 92 92 92 92 30 30 30 30 30 30 30 60 60 60 60 60 60 60 60 55
 61 61 71 71 71 44 44 44 44 30 30 30 30 30 30 30 60 60 60 60
 60 60 60 60 61 61 61 61 61 44 44 44 44 44 30 30 30 30 30 30
 23 60 60 60 60 60 60 60 60 61 61 61 61 61 44 44 44 44 44 44
 30 30 30 30 23 23 60 60 60 60 60 60 60 61 61 61 61 61 61 44
 44 44 44 44 32 32 32 32 32 32 32 60 60 60 60 60 60 60 61 61
 61 61 61 61 44 44 44 44 44 32 32 32 32 32 32 32 32 5 5 5
 5 5 5 61 61 61 61 61 61 44 44 44 44 32 32 32 32 32 32 32
 32 32 5 5 5 53 53 53 97 48 48 48 48 47 47 11 11 11 11 32
 32 32 32 32 32 32 32 5 5 53 53 53 97 97 97 48 48 48 47 47
 11 11 11 11 32 32 32 32 32 32 32 32 5 5 53 53 53 97 97 97
 48 48 48 47 47 11 11 11 11 32 32 32 32 32 32 32 32 80 5 5
 5 97 97 97 97 97 97 49 49 11 11 11 11 11 32 32 32 32 32 32
 32 70 70 70 70 70 97 97 97 97 97 97 49 49 49 11 11 11 11 32
 32 9 9 9 32 32 70 70 70 70 70 97 97 97 97 97 49 49 49 49
 11 11 11 11 103 103 9 9 9 9 14 70 70 70 70 70 24 24 24 97
 49 49 49 49 49 104 104 104 104 103 103 103 103 14 14 14 26 26 26 26
 26 24 24 24 24 93 93 104 104 104 104 104 104 104 103 103 103 103 14 14
 14 26 26 26 26 26 24 24 24 93 93 93 104 104 104 104 104 104 104 104
 103 103 103 14 14 14 26 26 26 26 26 93 93 93 93 93 93 93 104 104
 104 104 104 104 104 103 103 14 14 14 14 14 26 26 26 93 93 93 93 93
 93 93 93 104 104 104 104 104 104 104 104 14 14 14 14 14 14 21 21 21
 93 93 93 93 93 93 93 93 104 104 104 104 107 107 107 107 107 14 14 14
 14 21 21 21 21 93 93 93 93 93 93 93 93 93 104 104 107 107 107 107
 107 107 22 14 14 14 21 21 21 21 93 93 93 93 93 93 93 93 93 104
 107 107 107 107 107 107 107 22 22 22 14 21 21 21 21 93 93 93 93 93
 93 93 93 93 104 107 107 107 107 107 107 107 22 22 22 109 109 21 21 21
 93 93 93 93 93 93 93 93 71 71 92 107 107 107 107 107 107 22 22 22
 22 60 60 60 60 60 60 93 93 93 93 71 71 71 71 71 92 107 107 107
 30 30 30 30 30 30 60 60 60 60 60 60 60 60 55 71 71 71 71 71
 71 71 92 107 30 30 30 30 30 30 30 60 60 60 60 60 60 60 60 60
 71 71 71 71 71 71 71 44 30 30 30 30 30 30 30 30 60 60 60 60
 60 60 60 60 60 61 71 71 71 71 44 44 44 44 30 30 30 30 30 30
 30 60 60 60 60 60 60 60 60 61 61 61 61 71 71 44 44 44 44 30
 30 30 30 30 30 30 60 60 60 60 60 60 60 60 61 61 61 61 61 44
 44 44 44 44 44 30 30 30 30 30 30 60 60 60 60 60 60 60 61 61
 61 61 61 61 44 44 44 44 44 32 32 32 32 32 32 32 60 60 60 60
 60 60 60 61 61 61 61 61 61 44 44 44 44 44 32 32 32 32 32 32
 32 32 90 90 60 60 60 60 61 61 61 61 61 61 44 44 44 44 32 32
 32 32 32 32 32 32 90 90 90 90 53 53 53 97 48 48 48 48 48 47
 11 11 11 32 32 32 32 32 32 32 32 90 90 90 90 53 53 53 29 48
 48 48 48 48 47 11 11 11 11 32 32 32 32 32 32 32 90 90 90 90
 53 53 29 29 29 48 48 48 48 47 11 11 11 11 32 32 32 32 32 32
 32 32 90 90 90 5 97 29 29 29 29 29 29 49 11 43 43 43 43 32
 32 32 9 32 32 32 70 70 70 70 94 94 29 29 29 29 29 29 49 49
 43 43 43 43 32 32 9 9 9 32 32 70 70 70 70 94 94 29 29 29
 29 29 49 49 49 43 43 43 103 103 103 9 9 9 9 32 70 70 70 70
 94 94 24 24 29 29 49 49 49 49 104 104 104 103 103 103 103 103 103 83
 83 26 26 26 26 26 24 24 24 24 93 93 104 104 104 104 104 104 104 103
 103 103 103 103 83 83 26 26 26 26 26 24 24 24 93 93 93 104 104 104
 104 104 104 104 103 103 103 103 103 14 14 26 26 26 26 26 93 93 93 93
 93 93 104 104 104 104 104 104 104 104 103 103 103 103 14 14 14 26 26 26
 93 93 93 93 93 93 93 104 104 104 104 104 104 104 104 104 103 103 14 14
 14 21 21 21 21 93 93 93 93 93 93 93 93 104 104 104 104 104 107 107
 107 107 107 14 14 14 21 21 21 21 93 93 93 93 93 93 93 93 104 104
 104 107 107 107 107 107 107 107 14 14 14 21 21 21 21 93 93 93 93 93
 93 93 93 93 104 104 107 107 107 107 107 107 107 22 109 109 109 21 21 21
 93 93 93 93 93 93 93 93 93 104 71 107 107 107 107 107 107 30 30 109
 109 109 60 60 60 93 93 93 93 93 93 93 71 71 71 71 107 107 107 107
 107 30 30 30 30 109 60 60 60 60 60 60 60 93 93 71 71 71 71 71
 71 71 107 107 30 30 30 30 30 30 30 60 60 60 60 60 60 60 60 60
 71 71 71 71 71 71 71 71 30 30 30 30 30 30 30 30 60 60 60 60
 60 60 60 60 60 71 71 71 71 71 71 71 71 30 30 30 30 30 30 30
 30 60 60 60 60 60 60 60 60 60 71 71 71 71 71 71 44 44 44 30
 30 30 30 30 30 30 60 60 60 60 60 60 60 60 60 61 61 71 71 71
 44 44 44 44 30 30 30 30 30 30 30 60 60 60 60 60 60 60 60 61