# vtk DataFile Version 2.0
Data set from ImportExport Version 6.5.141.ec284b7a5
ASCII

DATASET RECTILINEAR_GRID
DIMENSIONS 26 26 26
X_COORDINATES 26 float
-3.000000 3.000000 9.000000 15.000000 21.000000 27.000000 33.000000 39.000000 45.000000 51.000000 57.000000 63.000000 69.000000 75.000000 81.000000 87.000000 93.000000 99.000000 105.000000 111.000000 117.000000 
123.000000 129.000000 135.000000 141.000000 147.000000 
Y_COORDINATES 26 float
-3.000000 3.000000 9.000000 15.000000 21.000000 27.000000 33.000000 39.000000 45.000000 51.000000 57.000000 63.000000 69.000000 75.000000 81.000000 87.000000 93.000000 99.000000 105.000000 111.000000 117.000000 
123.000000 129.000000 135.000000 141.000000 147.000000 
Z_COORDINATES 26 float
-3.000000 3.000000 9.000000 15.000000 21.000000 27.000000 33.000000 39.000000 45.000000 51.000000 57.000000 63.000000 69.000000 75.000000 81.000000 87.000000 93.000000 99.000000 105.000000 111.000000 117.000000 
123.000000 129.000000 135.000000 141.000000 147.000000 
CELL_DATA 15625
SCALARS FeatureIds int 1
LOOKUP_TABLE default
 42 42 82 82 82 69 69 69 69 69 69 85 85 85 85 85 85 85 58 58
 42 42 42 42 42 42 42 42 82 82 69 69 69 69 98 98 85 85 85 85
 85 85 85 58 58 42 42 42 42 42 42 42 42 82 22 22 22 69 98 98
 98 98 85 85 85 85 85 85 58 42 42 42 42 42 42 42 42 42 22 22
 22 22 22 98 98 98 98 98 85 85 85 85 42 42 42 42 42 42 42 42
 42 42 22 22 22 22 22 22 98 60 60 60 60 85 85 85 85 7 42 42
 42 42 42 42 42 42 42 22 22 22 22 22 22 22 60 60 60 60 60 23
 23 23 65 42 42 42 42 42 42 42 42 22 22 22 22 22 22 22 22 60
 60 60 60 60 23 23 23 65 65 42 80 80 42 42 42 12 12 22 22 22
 22 22 22 22 22 60 60 60 60 23 23 65 65 65 66 66 66 66 42 42
 12 12 12 22 13 22 22 22 22 22 81 60 60 60 36 36 36 66 66 66
 66 66 66 66 12 12 12 12 13 13 13 13 22 22 81 81 81 81 36 36
 36 36 36 36 66 66 63 63 63 12 12 12 12 13 13 13 13 13 22 81
 81 81 36 36 36 36 36 36 36 36 66 63 63 62 62 12 12 12 13 13
 13 13 13 13 81 81 81 36 36 36 36 36 36 36 36 36 63 62 62 62
 12 12 12 13 13 13 13 13 13 81 99 99 36 36 36 36 36 36 36 36
 36 36 62 62 62 1 12 1 13 13 13 13 13 102 102 99 99 104 36 36
 36 36 36 36 36 36 36 36 62 62 1 1 1 1 27 27 27 102 102 102
 99 99 99 36 36 36 36 36 36 36 36 36 36 33 62 1 1 1 1 27
 27 27 27 102 102 99 99 99 36 36 36 36 36 36 36 36 36 36 33 33
 1 1 1 1 27 27 27 27 102 102 47 99 99 36 36 36 36 36 36 36
 36 36 36 33 33 1 1 1 27 27 27 27 27 102 102 47 99 99 35 35
 35 35 35 35 35 36 36 36 33 45 45 45 45 27 27 27 27 27 27 102
 47 99 35 35 35 35 35 35 35 35 35 35 35 45 45 45 45 45 27 27
 27 27 27 69 69 78 78 78 35 35 35 35 35 35 35 35 35 45 45 45
 45 45 45 45 27 27 69 69 69 69 78 78 78 78 10 24 24 24 24 24
 24 24 45 45 45 45 45 45 45 41 69 69 69 69 69 78 78 78 10 10
 24 24 24 24 24 24 24 45 45 45 45 45 45 41 41 41 69 69 69 69
 69 78 10 10 10 24 24 24 24 24 24 42 42 42 45 45 45 45 41 41
 41 69 69 69 69 69 10 10 10 10 85 24 24 24 24 42 42 42 42 42
 45 45 41 41 41 41 69 69 69 69 69 85 85 85 85 85 85 24 24 42
 42 42 42 42 42 42 82 82 82 82 82 69 69 69 69 69 98 98 85 85
 85 85 58 58 58 58 42 42 42 42 42 42 82 82 82 82 69 69 69 98
 98 98 98 85 85 85 85 7 58 58 58 42 42 42 42 42 42 82 82 82
 82 22 69 98 98 98 98 98 98 85 85 85 7 58 58 42 42 42 42 42
 42 42 22 22 22 22 22 22 98 98 98 98 98 98 98 85 7 7 7 42
 42 42 42 42 42 42 42 22 22 22 22 22 22 98 98 98 60 98 98 98
 98 7 7 7 42 42 42 42 42 42 42 22 22 22 22 22 22 22 22 98
 60 60 60 98 98 65 65 65 65 65 42 42 42 42 42 42 22 22 22 22
 22 22 22 22 60 60 60 60 98 65 65 65 65 65 65 42 42 42 42 42
 12 12 22 22 22 22 22 22 22 22 98 98 98 98 65 65 65 65 65 66
 66 66 66 42 42 12 12 12 13 13 13 22 22 22 81 81 98 98 98 65
 65 65 65 65 66 66 66 66 66 12 12 12 12 13 13 13 13 13 81 81
 81 81 81 36 36 36 36 36 36 66 66 66 66 62 12 12 12 12 13 13
 13 13 13 81 81 81 81 36 36 36 36 36 36 36 66 66 66 62 62 62
 12 12 12 13 13 13 13 13 13 81 81 81 36 36 36 36 36 36 36 36
 36 36 62 62 62 62 12 12 13 13 13 13 13 13 99 99 99 36 36 36
 36 36 36 36 36 36 36 62 62 62 62 12 12 13 13 13 13 13 102 99
 99 99 36 36 36 36 36 36 36 36 36 36 62 62 62 1 1 1 1 13
 27 27 102 102 102 99 99 99 36 36 36 36 36 36 36 36 36 36 33 33
 1 1 1 1 27 27 27 27 102 102 99 99 99 36 36 36 36 36 36 36
 36 36 33 33 33 1 1 1 1 27 27 27 27 102 102 102 99 99 36 36
 36 36 36 36 36 36 36 33 33 33 1 1 1 27 27 27 27 27 102 102
 102 99 99 36 36 36 36 36 36 36 36 36 33 33 33 45 45 45 27 27
 27 27 27 27 102 102 99 99 35 35 35 35 35 35 35 35 35 35 33 45
 45 45 45 27 27 27 27 69 69 69 78 78 78 78 24 24 24 24 24 24
 24 24 45 45 45 45 45 45 45 27 27 69 69 69 69 78 78 78 78 24
 24 24 24 24 24 24 24 45 45 45 45 45 45 41 41 69 69 69 69 69
 78 78 78 10 24 24 24 24 24 24 24 24 24 45 45 45 45 41 41 41
 41 69 69 69 69 69 78 78 10 24 24 24 24 24 24 24 24 42 42 45
 30 30 41 41 41 41 69 69 69 69 69 69 10 10 24 24 24 24 24 24
 42 42 42 42 42 30 30 41 41 41 41 69 69 69 69 69 69 85 85 85
 85 85 24 24 42 42 42 42 42 42 42 82 82 82 82 82 69 69 69 69
 98 98 98 98 98 85 85 58 58 58 58 42 42 42 42 42 82 82 82 82
 82 69 69 69 98 98 98 98 98 98 85 7 7 58 58 58 42 42 42 42
 42 82 82 82 82 82 82 69 98 98 98 98 98 98 98 7 7 7 7 58
 42 42 42 42 42 42 42 82 82 82 22 22 22 98 98 98 98 98 98 98
 7 7 7 7 7 42 42 42 42 42 42 22 22 22 22 22 22 22 98 98
 98 98 98 98 98 65 7 7 7 65 42 42 42 42 42 42 22 22 22 22
 22 22 22 98 98 98 98 98 98 65 65 65 65 65 65 65 42 42 42 42
 42 22 22 22 22 22 22 22 22 98 98 98 98 98 65 65 65 65 65 65
 65 42 42 42 42 12 12 22 22 22 22 22 22 22 98 98 98 98 98 65
 65 65 65 65 65 66 66 66 66 12 12 12 12 22 22 22 22 22 22 81
 81 98 98 98 65 65 65 65 65 66 66 66 66 66 12 12 12 12 13 13
 13 13 13 22 81 81 81 98 36 36 65 65 65 65 66 66 66 66 62 12
 12 12 12 13 13 13 13 13 13 81 81 81 36 36 36 36 36 36 36 36
 66 66 62 62 62 12 12 12 13 13 13 13 13 13 81 81 81 36 36 36
 36 36 36 36 36 36 66 62 62 62 62 12 12 13 13 13 13 13 13 81
 99 36 36 36 36 36 36 36 36 36 36 36 62 62 62 62 12 67 67 13
 13 13 13 102 102 99 99 36 36 36 36 36 36 36 36 36 36 36 62 62
 1 1 67 70 70 70 70 102 102 102 99 99 99 36 36 36 36 36 36 36
 36 36 36 33 62 1 1 70 70 70 70 70 102 102 102 99 99 99 36 36
 36 36 36 36 36 36 36 33 33 33 1 1 70 70 70 70 70 70 102 102
 102 99 99 36 36 36 36 36 36 36 36 36 36 33 33 1 70 70 70 70
 70 70 70 70 102 102 97 97 97 36 36 36 36 36 36 36 36 36 33 33
 45 45 70 70 70 70 70 70 70 70 102 97 97 97 97 24 24 24 24 24
 36 36 36 33 45 45 45 70 70 70 70 70 69 69 69 78 78 78 78 24
 24 24 24 24 24 24 24 45 45 45 30 30 41 41 41 70 69 69 69 69
 78 78 78 78 24 24 24 24 24 24 24 24 45 45 45 30 30 41 41 41
 41 69 69 69 69 78 78 78 78 24 24 24 24 24 24 24 24 24 30 30
 30 30 30 41 41 41 69 69 69 69 69 78 78 78 24 24 24 24 24 24
 24 24 42 30 30 30 30 30 41 41 41 69 69 69 69 69 69 10 98 24
 24 24 24 24 24 24 42 42 42 30 30 30 82 41 41 41 69 69 69 69
 69 98 98 98 85 24 24 24 24 24 42 42 42 42 42 30 82 82 82 82
 82 69 69 69 69 98 98 98 98 98 98 7 7 58 58 58 42 42 42 42
 30 82 82 82 82 82 69 69 69 98 98 98 98 98 98 7 7 7 7 7
 58 42 42 42 42 42 82 82 82 82 82 82 98 98 98 98 98 98 98 98
 7 7 7 7 7 42 42 42 42 42 42 82 82 82 82 22 22 98 98 98
 98 98 98 98 98 7 7 7 7 7 42 42 42 42 42 42 72 72 22 22
 22 22 22 98 98 98 98 98 98 98 65 7 7 7 65 65 42 42 42 42
 42 22 22 22 22 22 22 22 98 98 98 98 98 98 65 65 65 65 65 65
 65 65 42 42 42 42 22 22 22 22 22 22 22 22 98 98 98 98 98 65
 65 65 65 65 65 65 65 42 42 42 12 12 22 22 22 22 22 22 22 98
 98 98 98 65 65 65 65 65 65 65 65 65 66 66 12 12 12 22 22 22
 22 22 22 22 81 81 98 98 65 65 65 65 65 65 65 65 66 66 66 12
 12 12 12 13 13 13 13 13 22 81 81 15 65 65 65 65 65 65 65 65
 66 66 66 62 12 12 12 67 67 13 13 13 13 13 81 15 15 15 36 36
 36 36 36 65 65 66 66 62 62 62 12 67 67 67 67 13 13 13 13 15
 15 15 36 36 36 36 36 36 36 36 36 36 62 62 62 67 67 67 67 67
 67 67 67 15 15 15 36 36 36 36 36 36 36 36 36 36 36 62 62 62
 67 67 67 67 67 67 67 67 102 102 99 99 36 36 36 36 36 36 36 36
 36 36 36 62 62 67 67 67 70 70 70 70 70 102 102 99 99 99 36 36
 36 36 36 36 36 36 36 36 33 62 67 67 70 70 70 70 70 70 70 102
 99 99 99 36 36 36 36 36 36 36 36 36 36 33 33 70 70 70 70 70
 70 70 70 70 102 102 97 97 97 97 36 36 36 36 36 36 36 36 33 33
 70 70 70 70 70 70 70 70 70 70 97 97 97 97 97 97 36 36 36 36
 36 36 36 33 33 70 70 70 70 70 70 70 70 70 70 97 97 97 97 97
 24 24 24 24 24 36 36 36 3 3 30 70 70 70 70 70 70 70 70 69
 97 97 97 97 24 24 24 24 24 24 24 24 3 3 3 30 30 30 70 70
 70 70 69 69 69 69 78 78 24 24 24 24 24 24 24 24 24 3 3 30
 30 30 30 41 41 41 69 69 69 69 69 69 78 24 24 24 24 24 24 24
 24 24 3 30 30 30 30 30 41 41 41 69 69 69 69 69 69 78 24 24
 24 24 24 24 24 24 24 30 30 30 30 30 30 41 41 41 69 69 69 69
 69 69 69 98 24 24 24 24 24 24 24 42 42 30 30 30 30 30 82 41
 41 69 69 69 69 69 98 98 98 98 24 24 24 24 24 24 42 42 30 30
 30 30 82 82 82 82 69 69 69 98 98 98 98 98 98 98 7 7 7 53
 53 53 53 30 30 30 82 82 82 82 82 82 69 69 98 98 98 98 98 98
 98 7 7 7 7 53 53 42 42 30 30 82 82 82 82 82 82 98 98 98
 98 98 98 98 98 7 7 7 7 7 53 42 42 42 42 42 82 82 72 72
 22 22 98 98 98 98 98 98 98 98 65 7 7 7 65 65 42 42 42 42
 72 72 72 72 72 22 22 22 98 98 98 98 98 98 98 65 65 7 65 65
 65 65 42 42 42 72 72 72 72 72 22 22 22 98 98 98 98 98 98 65
 65 65 65 65 65 65 65 65 42 42 72 72 72 72 22 22 22 22 98 98
 98 98 98 65 65 65 65 65 65 65 65 65 65 42 42 67 72 22 22 22
 22 22 22 22 98 98 98 98 65 65 65 65 65 65 65 65 65 65 65 12
 67 67 67 67 22 22 22 22 22 98 15 15 15 65 65 65 65 65 65 65
 65 65 66 66 12 67 67 67 67 67 67 13 22 22 15 15 15 15 65 65
 65 65 65 65 65 65 65 66 62 12 67 67 67 67 67 67 67 67 15 15
 15 15 15 15 65 65 65 65 65 65 65 65 62 62 67 67 67 67 67 67
 67 67 67 15 15 15 15 15 15 36 36 36 36 36 36 36 36 62 62 62
 67 67 67 67 67 67 67 67 15 15 15 15 15 15 36 36 36 36 36 36
 36 36 62 62 67 67 67 67 67 67 67 67 67 15 15 15 15 15 36 36
 36 36 36 36 36 36 36 84 84 67 67 67 67 67 70 70 70 70 70 15
 15 97 97 97 36 36 36 36 36 36 36 36 84 84 84 67 67 70 70 70
 70 70 70 70 70 97 97 97 97 97 36 36 36 36 36 36 36 84 84 84
 70 70 70 70 70 70 70 70 70 97 97 97 97 97 97 97 36 36 36 36
 36 84 84 84 84 70 70 70 70 70 70 70 70 70 70 97 97 97 97 97
 97 97 36 36 36 36 84 84 84 84 70 70 70 70 70 70 70 70 70 97
 97 97 97 97 97 97 24 24 24 24 24 84 3 3 3 30 70 70 70 70
 70 70 70 70 97 97 97 97 97 97 24 24 24 24 24 24 3 3 3 3
 30 30 30 70 70 70 70 70 69 69 97 97 97 97 24 24 24 24 24 24
 24 3 3 3 30 30 30 30 30 41 70 69 69 69 69 69 69 97 97 24
 24 24 24 24 24 24 3 3 3 30 30 30 30 30 41 41 69 69 69 69
 69 69 97 24 24 24 24 24 24 24 24 3 3 30 30 30 30 30 30 41
 41 69 69 69 69 69 69 98 98 24 24 24 24 24 24 24 3 3 30 30
 30 30 30 30 41 41 69 69 69 69 69 98 98 98 98 24 24 24 24 24
 53 53 30 30 30 30 30 30 82 82 82 83 69 77 77 77 77 77 98 98
 98 7 7 7 53 53 53 53 30 30 30 30 82 82 82 82 83 69 77 77
 77 77 98 98 98 98 7 7 7 53 53 53 53 29 30 30 82 82 82 82
 82 83 98 98 98 98 98 98 98 98 98 7 7 65 65 53 53 53 29 29
 72 72 72 72 72 72 22 74 98 98 98 98 98 98 92 65 65 65 65 65
 65 65 65 29 42 72 72 72 72 72 72 22 74 98 98 98 98 98 98 65
 65 65 65 65 65 65 65 65 42 42 72 72 72 72 72 72 22 74 98 98
 98 98 98 98 65 65 65 65 65 65 65 65 65 65 42 72 72 72 72 72
 22 22 74 98 98 98 98 98 65 65 65 65 65 65 65 65 65 65 65 65
 67 72 72 72 22 22 22 22 22 98 98 98 98 65 65 65 65 65 65 65
 65 65 65 65 67 67 67 67 67 67 67 67 22 22 15 15 15 15 65 65
 65 65 65 65 65 65 65 65 65 67 67 67 67 67 67 67 67 67 15 15
 15 15 15 15 65 65 65 65 65 65 65 65 65 67 67 67 67 67 67 67
 67 67 67 15 15 15 15 15 15 65 65 65 65 65 65 65 65 65 67 67
 67 67 67 67 67 67 67 67 15 15 15 15 15 15 15 65 65 65 65 65
 65 65 84 67 67 67 67 67 67 67 67 67 67 15 15 15 15 15 15 15
 36 36 36 36 36 36 84 84 67 67 67 67 67 67 67 67 67 67 15 15
 15 15 15 15 97 36 36 36 36 36 84 84 84 84 67 67 67 67 67 67
 70 70 70 70 15 15 97 97 97 97 97 36 36 36 36 84 84 84 84 84
 67 67 70 70 70 70 70 70 70 97 97 97 97 97 97 97 97 36 36 84
 84 84 84 84 84 67 70 70 70 70 70 70 70 70 97 97 97 97 97 97
 97 97 97 36 84 84 84 84 84 84 70 70 70 70 70 70 70 70 70 97
 97 97 97 97 97 97 97 97 97 84 84 84 84 84 84 70 70 70 70 70
 70 70 70 70 97 97 97 97 97 97 97 97 97 24 24 84 84 3 3 3
 30 70 70 70 70 70 70 70 70 97 97 97 97 97 97 97 24 24 24 24
 3 3 3 3 3 30 30 30 14 70 70 70 70 70 97 97 97 97 97 97
 24 24 24 24 24 3 3 3 3 3 30 30 30 14 14 14 70 69 69 69
 56 97 97 97 24 24 24 24 24 24 3 3 3 3 30 30 30 30 30 30
 43 43 43 69 56 56 56 97 97 24 24 24 24 24 24 3 3 3 3 30
 30 30 30 30 30 43 43 43 56 56 56 56 56 98 24 24 24 24 24 24
 3 3 3 30 30 30 30 30 30 30 41 43 43 56 56 77 77 77 98 98
 24 24 24 24 24 53 3 3 30 30 30 30 30 30 83 83 83 83 77 77
 77 77 77 77 77 77 77 65 65 53 53 53 29 29 30 30 30 30 30 83
 83 83 83 77 77 77 77 77 77 77 77 65 65 65 53 53 29 29 29 29
 30 30 82 82 83 83 83 83 77 77 77 77 77 77 92 92 65 65 65 65
 65 29 29 29 29 29 72 72 72 72 72 74 74 77 77 77 77 98 92 92
 92 65 65 65 65 65 65 29 29 29 72 72 72 72 72 72 74 74 74 98
 98 98 98 92 92 65 65 65 65 65 65 65 65 29 29 72 72 72 72 72
 72 74 74 74 98 98 98 98 98 65 65 65 65 65 65 65 65 65 65 29
 72 72 72 72 72 72 74 74 74 98 98 98 98 65 65 65 65 65 65 65
 65 65 65 65 65 67 67 67 67 67 67 67 71 71 98 98 98 98 65 65
 65 65 65 65 65 65 65 65 65 67 67 67 67 67 67 67 67 71 71 15
 15 15 15 65 65 65 65 65 65 65 65 65 65 67 67 67 67 67 67 67
 67 67 67 15 15 15 15 15 15 65 65 65 65 65 65 65 65 65 67 67
 67 67 67 67 67 67 67 67 15 15 15 15 15 15 15 65 65 65 65 65
 65 65 65 67 67 67 67 67 67 67 67 67 67 15 15 15 15 15 15 15
 65 65 65 65 65 65 84 84 67 67 67 67 67 67 67 67 67 67 15 15
 15 15 15 15 15 65 65 65 65 84 84 84 84 84 67 67 67 67 67 67
 67 67 67 15 15 15 15 15 15 97 97 97 36 84 84 84 84 84 84 67
 67 67 67 67 67 67 8 8 8 15 15 97 97 97 97 97 97 97 84 84
 84 84 84 84 84 67 67 67 70 70 70 8 8 8 97 97 97 97 97 97
 97 97 97 84 84 84 84 84 84 84 101 101 70 70 70 70 70 8 8 97
 97 97 97 97 97 97 97 97 84 84 84 84 84 84 84 101 101 70 70 70
 70 70 70 70 97 97 97 97 97 97 97 97 97 84 84 84 84 84 84 84
 101 101 70 70 70 70 70 70 70 97 97 97 97 97 97 97 97 97 97 84
 84 84 84 84 84 30 70 70 70 70 70 70 70 70 97 97 97 97 97 97
 97 97 97 24 24 3 3 3 3 3 30 30 30 14 14 70 70 70 70 97
 97 97 97 97 97 97 24 24 24 24 3 3 3 3 3 30 30 30 14 14
 14 70 70 56 56 56 56 97 97 97 97 24 24 24 24 3 3 3 3 3
 30 30 30 30 14 43 43 43 56 56 56 56 56 97 97 24 24 24 24 24
 3 3 3 3 30 30 30 30 30 30 43 43 43 56 56 56 56 56 56 24
 24 24 24 24 24 3 3 3 3 30 30 30 30 30 30 43 43 43 56 56
 56 77 77 77 77 24 24 24 24 24 3 3 3 3 30 30 30 30 30 83
 83 83 83 56 56 77 77 77 77 77 77 5 5 5 29 29 29 29 29 29
 29 30 30 83 83 83 83 83 77 77 77 77 77 77 77 77 5 5 5 5
 29 29 29 29 29 29 30 83 83 83 83 83 83 77 77 77 77 77 77 92
 92 92 65 65 65 29 29 29 29 29 29 29 72 72 83 83 83 74 77 77
 77 77 77 92 92 92 65 65 65 65 65 29 29 29 29 29 29 72 72 72
 74 74 74 74 77 77 77 98 92 92 92 65 65 65 65 65 65 29 29 29
 72 72 72 72 72 74 74 74 74 74 98 98 98 98 65 65 65 65 65 65
 65 65 65 29 29 72 72 72 72 72 71 74 74 74 71 98 98 98 65 65
 65 65 65 65 65 65 65 65 65 29 67 67 67 67 67 71 71 71 71 71
 71 15 65 65 65 65 65 65 65 65 65 65 65 65 67 67 67 67 67 67
 67 71 71 71 71 15 15 15 15 65 65 65 65 65 65 65 65 65 67 67
 67 67 67 67 67 67 67 71 71 15 15 15 15 15 65 65 65 65 65 65
 65 65 65 67 67 67 67 67 67 67 67 67 67 15 15 15 15 15 15 15
 65 65 65 65 65 65 65 84 67 67 67 67 67 67 67 67 67 67 15 15
 15 15 15 15 15 65 65 65 65 65 65 84 84 84 67 67 67 67 67 67
 67 67 67 15 15 15 15 15 15 15 65 65 65 84 84 84 84 84 84 67
 67 67 67 67 67 67 67 8 15 15 15 15 15 15 97 97 97 84 84 84
 84 84 84 84 84 67 67 67 67 67 67 8 8 8 15 15 15 97 97 97
 97 97 97 84 84 84 84 84 84 84 67 67 67 67 70 70 8 8 8 97
 97 97 97 97 97 97 97 97 84 84 84 84 84 84 84 101 101 70 70 70
 70 70 8 8 97 97 97 97 97 97 97 97 97 84 84 84 84 84 84 84
 101 101 101 70 70 70 70 70 8 97 97 97 97 97 97 97 97 97 84 84
 84 84 84 84 84 101 101 70 70 70 70 70 70 70 97 97 97 97 97 97
 97 97 97 84 84 84 84 84 84 84 101 101 70 70 70 70 70 70 70 97
 97 97 97 97 97 97 97 97 97 84 3 3 3 3 3 30 30 30 14 14
 70 70 70 56 97 97 97 97 97 97 97 97 97 24 3 3 3 3 3 3
 30 30 30 14 14 14 70 56 56 56 56 56 97 97 97 97 97 24 24 3
 3 3 3 3 3 30 30 30 14 14 43 43 43 56 56 56 56 56 56 97
 97 24 24 24 3 3 3 3 3 3 30 30 30 30 30 43 43 43 56 56
 56 56 56 56 24 24 24 24 24 3 3 3 3 3 3 30 30 30 30 30
 83 43 43 56 56 56 56 77 77 77 77 24 24 24 3 3 3 3 29 30
 29 30 30 83 83 83 83 83 56 56 56 77 77 77 77 77 5 5 5 88
 88 29 29 29 29 29 29 83 83 83 83 83 83 77 77 77 77 77 77 77
 77 5 5 5 5 88 29 29 29 29 29 29 83 83 83 83 83 83 77 77
 77 77 77 77 92 92 5 5 5 5 29 29 29 29 29 29 29 83 83 83
 83 83 83 77 77 77 77 77 92 92 92 65 65 65 65 65 29 29 29 29
 29 29 83 83 72 74 74 74 74 77 77 77 77 92 92 92 65 65 65 65
 19 19 19 29 29 29 29 72 72 71 71 74 74 74 71 71 98 98 31 65
 65 65 65 65 65 19 19 19 19 29 67 67 72 72 71 71 71 71 71 71
 71 71 31 31 65 65 65 65 65 65 65 19 19 19 19 67 67 67 67 67
 71 71 71 71 71 71 31 31 31 65 65 65 65 65 65 65 65 19 19 67
 67 67 67 67 67 71 71 71 71 71 15 15 15 15 65 65 65 65 65 65
 65 65 65 67 67 67 67 67 67 67 67 71 71 71 15 15 15 15 15 65
 65 65 65 65 65 65 65 65 67 67 67 67 67 67 67 67 67 67 15 15
 15 15 15 15 15 65 65 65 65 65 65 84 84 67 67 67 67 67 67 67
 67 67 67 15 15 15 15 15 15 15 65 65 65 65 65 84 84 84 84 67
 67 67 67 67 67 67 67 67 15 15 15 15 15 15 15 15 65 65 84 84
 84 84 84 84 67 67 67 67 67 67 67 67 8 15 15 15 15 15 15 97
 97 97 84 84 84 84 84 84 84 84 67 67 67 67 67 67 8 8 8 15
 15 15 97 97 97 97 97 84 84 84 84 84 84 84 84 84 67 67 67 67
 67 8 8 8 97 97 97 97 97 97 97 97 84 84 84 84 84 84 84 84
 84 101 70 70 70 70 8 8 8 97 97 97 97 97 97 97 97 97 84 84
 84 84 84 84 84 101 101 101 70 70 70 70 52 52 97 97 97 97 97 97
 97 97 97 84 84 84 84 84 84 84 57 101 70 70 70 70 70 52 52 52
 97 97 97 97 97 97 97 97 84 84 84 84 84 84 84 57 101 70 70 70
 70 70 52 52 52 97 97 97 97 97 97 97 97 84 84 84 3 3 3 3
 30 105 105 14 14 70 52 52 52 52 52 97 97 97 97 97 97 97 93 3
 3 3 3 3 3 30 30 30 14 14 14 43 56 56 56 56 56 97 97 97
 97 97 93 93 3 3 3 3 3 3 30 30 30 14 14 43 43 56 56 56
 56 56 56 56 97 97 97 93 93 3 3 3 3 3 3 30 30 30 30 105
 43 43 56 56 56 56 56 56 56 56 97 97 93 93 88 88 3 3 3 3
 30 30 30 30 83 83 83 56 56 56 56 56 56 77 77 77 77 93 88 88
 88 88 29 29 29 29 29 105 83 83 83 83 83 56 56 56 56 56 77 77
 5 5 5 5 88 88 88 29 29 29 29 29 83 83 83 83 83 83 56 56
 77 77 77 77 77 5 5 5 5 88 88 29 29 29 29 29 29 83 83 83
 83 83 83 77 77 77 77 77 77 92 92 5 5 5 5 29 29 29 29 29
 29 29 29 83 83 83 83 83 77 77 77 77 77 77 92 92 5 5 5 50
 50 29 29 29 29 29 29 29 83 83 83 74 71 71 71 77 31 31 31 31
 31 65 50 50 50 19 19 19 29 29 96 96 96 71 71 71 71 71 71 71
 71 31 31 31 31 31 65 65 50 50 19 19 19 19 96 96 96 67 67 71
 71 71 71 71 71 71 31 31 31 31 31 65 65 50 50 19 19 19 19 96
 67 67 67 67 71 71 71 71 71 71 71 31 31 31 31 31 65 65 65 65
 65 19 19 96 96 67 67 67 67 67 71 71 71 71 71 71 31 31 31 31
 31 65 65 65 65 65 65 19 67 67 67 67 67 67 67 67 71 71 71 15
 15 15 15 15 31 65 65 65 65 65 65 65 67 67 67 67 67 67 67 67
 67 67 71 15 15 15 15 15 15 15 65 65 65 65 65 65 84 84 67 67
 67 67 67 67 67 67 67 67 15 15 15 15 15 15 15 15 65 65 65 84
 84 84 84 84 67 67 67 67 67 67 67 28 28 15 15 15 15 15 15 15
 15 64 64 84 84 84 84 84 84 67 67 67 67 67 67 28 28 28 15 15
 15 15 15 15 97 97 97 84 84 84 84 84 84 84 84 67 67 67 67 28
 28 28 28 8 15 15 15 97 97 97 97 97 84 84 84 84 84 84 84 84
 84 67 67 67 28 28 28 8 8 97 97 97 97 97 97 97 97 84 84 84
 84 84 84 84 84 84 67 67 67 70 70 8 8 52 52 97 97 97 97 97
 97 97 84 84 84 84 84 84 84 84 84 101 101 70 70 70 52 52 52 52
 52 97 97 97 97 97 97 97 84 84 84 84 84 84 57 57 57 70 70 70
 70 52 52 52 52 52 97 97 97 97 97 97 97 84 84 84 84 84 57 57
 57 105 105 105 70 70 52 52 52 52 52 97 97 97 97 97 97 97 93 93
 84 84 84 57 57 105 105 105 105 105 52 52 52 52 52 52 52 97 97 97
 97 97 93 93 93 88 88 3 3 3 105 105 105 105 105 105 52 52 52 52
 56 56 56 97 97 97 93 93 93 88 88 88 3 3 3 105 105 105 105 105
 105 43 56 56 56 56 56 56 56 97 97 93 93 93 88 88 88 88 88 3
 105 105 105 105 105 105 43 56 56 56 56 56 56 56 56 56 93 93 93 88
 88 88 88 88 88 105 105 105 105 105 83 83 56 56 56 56 56 56 56 56
 56 93 93 88 88 88 88 88 29 29 29 105 105 105 83 83 83 83 56 56
 56 56 56 56 56 5 5 5 88 88 88 88 29 29 29 29 105 105 105 83
 83 83 83 56 56 56 56 77 77 77 5 5 5 5 88 88 88 29 29 29
 29 29 105 83 83 83 89 89 89 56 56 77 77 77 31 31 5 5 5 88
 88 29 29 29 29 29 29 29 83 83 89 89 89 71 77 77 77 31 31 31
 31 31 5 50 50 50 29 29 29 29 96 96 96 96 89 89 89 71 71 71
 31 31 31 31 31 31 31 50 50 50 50 19 19 96 96 96 96 96 71 71
 71 71 71 71 71 31 31 31 31 31 31 31 50 50 50 50 19 19 96 96
 96 96 96 71 71 71 71 71 71 71 31 31 31 31 31 31 31 50 50 50
 50 19 96 96 96 96 96 67 67 71 71 71 71 71 71 31 31 31 31 31
 31 31 31 50 50 50 19 96 96 96 67 67 67 67 67 71 71 71 71 71
 31 31 31 31 31 31 31 31 65 65 50 96 96 96 67 67 67 67 67 67
 67 71 71 71 71 31 31 31 31 31 31 31 65 64 64 64 64 64 96 67
 67 67 67 67 67 67 67 71 15 15 15 15 15 31 31 31 31 64 64 64
 64 64 64 67 67 67 67 67 67 67 67 28 28 15 15 15 15 15 15 15
 31 64 64 64 64 64 64 64 84 67 67 67 67 67 28 28 28 28 28 15
 15 15 15 15 15 15 64 64 64 64 64 84 84 84 84 67 67 67 28 28
 28 28 28 90 90 90 90 15 15 97 97 64 64 64 84 84 84 84 84 84
 84 67 67 28 28 28 28 28 90 90 90 90 90 97 97 97 97 84 84 84
 84 84 84 84 84 84 67 67 28 28 28 28 28 90 90 90 90 90 97 97
 97 97 84 84 84 84 84 84 84 84 84 67 67 28 28 28 52 52 52 52
 38 38 38 97 97 97 97 84 84 84 84 84 84 84 84 57 57 105 70 70
 52 52 52 52 52 38 38 38 97 97 97 97 84 84 84 84 84 84 57 57
 57 57 105 105 105 52 52 52 52 52 52 38 38 97 97 97 97 93 93 84
 84 84 84 57 57 105 105 105 105 105 105 52 52 52 52 52 52 97 97 97
 97 97 93 93 93 93 88 88 57 57 105 105 105 105 105 105 52 52 52 52
 52 52 52 97 97 97 93 93 93 93 93 88 88 88 88 105 105 105 105 105
 105 52 52 52 52 52 52 56 97 97 93 93 93 93 93 88 88 88 88 88
 105 105 105 105 105 105 52 52 56 56 56 56 56 56 56 93 93 93 93 88
 88 88 88 88 88 105 105 105 105 105 105 105 56 56 56 56 56 56 56 56
 93 93 93 93 88 88 88 88 88 88 105 105 105 105 105 105 83 56 56 56
 56 56 56 56 56 56 93 93 88 88 88 88 88 88 29 29 105 105 105 105
 83 6 6 6 6 6 56 56 56 56 5 5 5 88 88 88 88 88 88 29
 29 105 105 105 83 89 89 6 6 6 6 6 6 6 31 5 5 5 5 88
 88 88 88 29 29 29 96 96 83 89 89 89 89 6 6 6 6 6 31 31
 31 5 5 50 88 88 88 29 29 29 96 96 96 96 89 89 89 89 6 6
 6 6 31 31 31 31 31 50 50 50 50 50 96 96 96 96 96 96 96 89
 89 89 89 71 31 31 31 31 31 31 31 31 50 50 50 50 50 96 96 96
 96 96 96 96 71 71 71 71 71 31 31 31 31 31 31 31 31 50 50 50
 50 50 96 96 96 96 96 96 96 71 71 71 71 71 71 31 31 31 31 31
 31 31 31 50 50 50 50 96 96 96 96 96 96 96 71 71 71 71 71 31
 31 31 31 31 31 31 31 31 50 50 50 96 96 96 96 96 96 96 67 67
 71 71 71 71 31 31 31 31 31 31 31 31 31 64 64 64 96 96 96 96
 96 67 67 67 67 67 71 71 71 31 31 31 31 31 31 31 31 64 64 64
 64 64 64 96 96 67 67 67 67 67 67 67 71 71 31 31 31 31 31 31
 31 31 64 64 64 64 64 64 64 67 67 67 67 67 28 28 28 28 28 15
 15 31 31 31 31 31 31 64 64 64 64 64 64 64 67 67 67 67 28 28
 28 28 28 28 90 90 90 90 90 31 31 64 64 64 64 64 64 64 84 84
 67 67 67 28 28 28 28 28 28 90 90 90 90 90 90 79 64 64 64 64
 64 64 84 84 84 84 67 28 28 28 28 28 28 90 90 90 90 90 90 97
 79 64 64 84 84 84 84 84 84 84 84 67 28 28 28 28 28 28 90 90
 90 90 90 90 97 97 97 84 84 84 84 84 84 84 84 84 67 28 28 28
 28 52 52 52 52 38 38 38 90 97 97 97 84 84 84 84 84 84 84 84
 57 105 105 28 28 52 52 52 52 52 38 38 38 38 97 97 97 84 84 84
 84 84 84 84 57 57 105 105 105 105 52 52 52 52 52 52 38 38 97 97
 97 93 93 93 93 93 84 84 57 57 105 105 105 105 105 105 52 52 52 52
 52 52 52 97 97 93 93 93 93 93 93 93 88 57 57 105 105 105 105 105
 105 52 52 52 52 52 52 52 97 97 93 93 93 93 93 93 88 88 88 105
 105 105 105 105 105 105 52 52 52 52 52 52 52 52 93 93 93 93 93 93
 93 88 88 88 105 105 105 105 105 105 105 52 52 52 52 56 56 56 56 93
 93 93 93 93 93 88 88 88 88 105 105 105 105 105 105 105 105 56 56 56
 56 56 56 56 93 93 93 93 93 88 88 88 88 88 88 105 105 105 105 105
 105 25 25 25 25 56 56 56 56 56 93 93 93 93 88 88 88 88 88 88
 105 105 105 105 105 105 6 25 25 25 6 6 6 6 6 93 93 93 93 88
 88 88 88 88 88 29 105 105 105 105 6 6 6 6 6 6 6 6 6 6
 31 93 93 93 88 88 88 88 88 29 96 96 96 96 89 89 89 6 6 6
 6 6 6 6 31 31 31 50 50 88 88 88 88 96 96 96 96 96 96 89
 89 89 6 6 6 6 6 31 31 31 31 31 50 50 50 50 96 96 96 96
 96 96 96 96 89 89 89 89 6 6 31 31 31 31 31 31 31 50 50 50
 50 96 96 96 96 96 96 96 96 96 89 71 71 71 31 31 31 31 31 31
 31 31 31 50 50 50 96 96 96 96 96 96 96 96 96 71 71 71 71 31
 31 31 31 31 31 31 31 31 50 50 50 96 96 96 96 96 96 96 96 51
 71 71 71 31 31 31 31 31 31 31 31 31 31 31 50 96 96 96 96 96
 96 96 96 96 67 71 71 71 31 31 31 31 31 31 31 31 31 31 64 64
 64 96 96 96 96 96 96 96 67 67 67 71 71 31 31 31 31 31 31 31
 31 31 64 64 64 64 64 64 96 96 96 67 67 67 67 67 28 28 31 31
 31 31 31 31 31 31 31 64 64 64 64 64 64 64 96 67 67 67 67 28
 28 28 28 28 31 31 31 31 31 31 31 31 64 64 64 64 64 64 64 64
 67 67 67 28 28 28 28 28 28 90 90 90 90 90 31 31 64 64 64 64
 64 64 64 64 64 67 67 28 28 28 28 28 28 28 90 90 90 90 90 90
 79 64 64 64 64 64 64 64 64 84 84 28 28 28 28 28 28 28 90 90
 90 90 90 90 79 79 79 64 64 64 64 84 84 84 84 84 28 28 28 28
 28 28 28 90 90 90 90 90 90 79 79 79 84 84 84 84 84 84 84 84
 84 28 28 28 28 28 52 52 52 90 90 90 90 90 46 46 46 46 84 84
 84 84 84 84 84 105 105 105 28 28 52 52 52 52 52 38 38 38 90 46
 46 46 93 93 93 84 84 84 84 57 105 105 105 105 105 52 52 52 52 52
 52 38 38 46 46 46 93 93 93 93 93 93 93 93 57 105 105 105 105 105
 105 52 52 52 52 52 52 52 97 46 93 93 93 93 93 93 93 93 93 93
 105 105 105 105 105 105 52 52 52 52 52 52 52 52 93 93 93 93 93 93
 93 93 93 88 105 105 105 105 105 105 105 52 52 52 52 52 52 52 52 93
 93 93 93 93 93 93 93 88 88 105 105 105 105 105 105 105 52 52 52 52
 52 52 52 52 93 93 93 93 93 93 93 88 88 88 105 105 105 105 105 105
 105 25 25 25 25 25 56 56 56 93 93 93 93 93 93 88 88 88 88 105
 105 105 105 105 105 105 25 25 25 25 25 25 56 56 93 93 93 93 93 88
 88 88 88 88 88 105 105 105 105 105 105 6 6 25 25 6 6 6 6 6
 94 93 93 93 88 88 88 88 88 88 96 105 105 105 105 105 6 6 6 6
 6 6 6 6 94 94 93 93 93 88 88 88 88 88 96 96 96 96 96 89
 89 6 6 6 6 6 6 6 6 31 31 31 31 50 88 88 96 96 96 96
 96 96 96 96 103 103 103 6 6 6 6 6 31 31 31 31 31 31 50 50
 96 96 96 96 96 96 96 96 96 103 103 103 103 6 6 31 31 31 31 31
 31 31 31 50 50 50 96 96 96 96 96 96 96 96 103 103 103 103 71 31
 31 31 31 31 31 31 31 31 50 50 50 96 96 96 96 96 96 96 96 103
 103 103 103 31 31 31 31 31 31 31 31 31 31 50 50 96 96 96 96 96
 96 96 96 51 51 103 103 71 31 31 31 31 31 31 31 31 31 31 31 50
 96 96 96 96 96 96 96 96 51 51 103 103 31 31 31 31 31 31 31 31
 31 31 31 64 64 64 96 96 96 96 96 96 96 96 51 103 71 31 31 31
 31 31 31 31 31 31 31 64 64 64 64 64 96 96 96 96 96 96 96 28
 28 28 75 31 31 31 31 31 31 31 31 31 64 64 64 64 64 64 64 96
 96 96 67 28 28 28 28 28 87 87 87 31 31 31 31 31 31 64 64 64
 64 64 64 64 96 67 67 67 28 28 28 28 28 28 87 87 87 90 90 79
 79 79 64 64 64 64 64 64 64 64 67 67 28 28 28 28 28 28 28 87
 90 90 90 90 79 79 79 64 64 64 64 64 64 64 64 84 28 28 28 28
 28 28 28 90 90 90 90 90 90 79 79 79 79 64 64 64 64 64 64 84
 11 11 28 28 28 28 28 28 90 90 90 90 90 79 79 79 79 79 84 84
 84 84 84 84 84 11 11 28 28 28 28 40 52 52 90 90 90 90 90 46
 46 46 46 84 84 84 84 84 84 84 105 105 105 105 40 40 52 52 52 52
 52 38 38 46 46 46 46 46 93 93 93 93 84 84 57 105 105 105 105 105
 40 40 52 52 52 52 52 38 46 46 46 46 93 93 93 93 93 93 93 93
 105 105 105 105 105 40 40 52 52 52 52 52 52 46 46 46 93 93 93 93
 93 93 93 93 93 105 105 105 105 105 105 40 52 52 52 52 52 52 46 46
 93 93 93 93 93 93 93 93 93 105 105 105 105 105 105 105 52 52 52 52
 52 52 52 52 93 93 93 93 93 93 93 93 93 93 105 105 105 105 105 105
 105 105 25 25 25 25 52 52 93 93 93 93 93 93 93 93 93 88 88 105
 105 105 105 105 105 105 25 25 25 25 25 25 25 25 93 93 93 93 93 93
 93 88 88 88 105 105 105 105 105 105 105 25 25 25 25 25 25 25 25 93
 93 93 93 93 93 88 88 88 88 105 105 105 105 105 105 6 6 6 25 6
 6 6 6 6 94 94 93 93 93 93 93 88 88 88 96 96 96 105 105 105
 6 6 6 6 6 6 6 6 6 94 94 94 93 93 88 88 88 88 96 96
 96 96 96 103 103 6 6 6 6 6 6 6 6 6 31 94 94 93 93 88
 96 96 96 96 96 96 96 96 103 103 103 103 6 6 6 6 6 31 31 31
 31 31 31 50 96 96 96 96 96 96 96 96 96 103 103 103 103 103 6 6
 31 31 31 31 31 31 31 31 50 96 96 96 96 96 96 96 96 96 103 103
 103 103 103 6 31 31 31 31 31 31 31 31 31 50 96 96 96 96 96 96
 96 96 96 51 103 103 103 103 31 31 31 31 31 31 31 31 31 31 50 96
 96 96 96 96 96 96 96 51 51 51 103 103 103 31 31 31 31 31 31 31
 31 31 31 31 96 96 96 96 96 96 96 96 96 51 51 51 103 31 31 31
 31 31 31 31 31 31 31 31 64 64 96 96 96 96 96 96 96 96 51 51
 51 75 75 31 31 31 31 31 31 31 31 31 31 64 64 64 64 96 96 96
 96 96 96 51 28 28 75 75 75 87 31 31 31 31 31 31 31 64 64 64
 64 64 64 96 96 96 96 96 39 28 28 39 75 75 87 87 87 31 31 31
 31 31 64 64 64 64 64 64 64 96 96 96 28 28 28 28 39 39 87 87
 87 87 90 79 79 79 79 64 64 64 64 64 64 64 64 11 28 28 28 28
 39 39 39 87 87 87 87 90 79 79 79 79 79 2 2 64 64 64 64 64
 11 11 28 28 39 39 39 39 87 87 87 90 90 79 79 79 79 79 2 2
 64 64 64 64 64 11 11 11 39 39 39 39 40 40 90 90 90 90 79 79
 79 79 79 79 84 84 84 84 84 84 11 11 11 39 40 40 40 40 40 40
 90 90 46 46 46 46 46 46 46 84 84 84 84 4 4 105 11 105 40 40
 40 40 40 40 40 52 52 46 46 46 46 46 46 46 93 93 93 93 4 4
 105 105 105 40 40 40 40 40 40 52 52 52 46 46 46 46 46 46 93 93
 93 93 93 93 4 105 105 105 105 40 40 40 40 40 52 52 52 46 46 46
 46 46 93 93 93 93 93 93 93 93 105 105 105 105 105 40 40 40 40 52
 52 52 52 46 46 46 93 93 93 93 93 93 93 93 105 105 105 105 105 105
 105 40 40 40 52 52 52 52 46 46 93 93 93 93 93 93 93 93 93 105
 105 105 105 105 105 105 40 40 25 25 25 25 25 46 93 93 93 93 93 93
 93 93 93 93 105 105 105 105 105 105 105 25 25 25 25 25 25 25 25 93
 93 93 93 93 93 93 93 93 93 105 105 105 105 105 105 105 25 25 25 25
 25 25 25 25 93 93 93 93 93 93 93 93 88 88 105 96 105 105 105 48
 6 6 6 6 6 6 6 6 6 94 94 94 93 93 93 93 88 88 96 96
 96 96 105 105 48 6 6 6 6 6 6 6 6 94 94 94 94 94 93 93
 93 88 96 96 96 96 96 96 103 103 103 6 6 6 6 6 6 6 31 94
 94 94 94 93 96 96 96 96 96 96 96 96 96 103 103 103 103 26 6 6
 6 6 31 31 31 31 31 31 44 96 96 96 96 96 96 96 96 96 103 103
 103 103 103 6 6 31 31 31 31 31 31 31 31 44 96 96 96 96 96 96