# vtk DataFile Version 2.0
Data set from IO Version 6.4.197.9a0dee2
ASCII

DATASET RECTILINEAR_GRID
DIMENSIONS 31 31 31
X_COORDINATES 31 float
-2.866667 2.866667 8.599999 14.333332 20.066666 25.799999 31.533331 37.266666 43.000000 48.733334 54.466667 60.200001 65.933327 71.666664 77.399994 83.133331 88.866661 94.599991 100.333328 106.066658 111.799995 
117.533325 123.266663 129.000000 134.733322 140.466660 146.199997 151.933319 157.666656 163.399994 169.133331 
Y_COORDINATES 31 float
-2.866667 2.866667 8.599999 14.333332 20.066666 25.799999 31.533331 37.266666 43.000000 48.733334 54.466667 60.200001 65.933327 71.666664 77.399994 83.133331 88.866661 94.599991 100.333328 106.066658 111.799995 
117.533325 123.266663 129.000000 134.733322 140.466660 146.199997 151.933319 157.666656 163.399994 169.133331 
Z_COORDINATES 31 float
-2.866667 2.866667 8.599999 14.333332 20.066666 25.799999 31.533331 37.266666 43.000000 48.733334 54.466667 60.200001 65.933327 71.666664 77.399994 83.133331 88.866661 94.599991 100.333328 106.066658 111.799995 
117.533325 123.266663 129.000000 134.733322 140.466660 146.199997 151.933319 157.666656 163.399994 169.133331 
CELL_DATA 27000
SCALARS FeatureIds int 1
LOOKUP_TABLE default
 331 331 362 362 362 295 295 295 295 295 295 347 347 347 347 347 363 363 363 363
 144 144 144 143 143 178 178 331 331 331 331 331 362 362 362 295 295 295 295 295
 295 347 347 347 347 347 352 363 363 144 144 144 144 143 143 178 178 178 331 331
 331 362 362 362 362 362 295 295 295 393 267 355 355 355 355 355 352 169 144 144
 144 144 144 143 143 389 389 140 140 140 140 215 215 362 362 49 49 393 393 393
 267 267 355 355 355 355 169 169 169 144 144 144 144 143 389 389 389 389 140 140
 215 215 215 215 49 49 49 393 393 393 267 267 240 240 240 169 169 169 169 137
 137 144 143 389 389 389 389 389 140 140 215 215 215 215 49 49 49 393 393 393
 267 267 240 240 240 169 169 169 169 137 137 144 143 389 389 389 389 389 389 215
 215 215 215 215 49 49 49 393 365 365 267 240 240 240 240 78 78 169 169 137
 137 137 389 389 389 389 389 389 389 215 215 215 215 215 49 297 297 297 365 365
 365 240 240 378 378 78 78 78 78 137 137 381 389 389 389 389 389 389 115 115
 115 115 215 41 41 297 297 297 297 365 365 378 378 378 378 378 78 78 5 5
 381 381 381 389 389 389 389 115 115 115 115 115 115 41 41 297 297 297 297 297
 297 378 378 378 378 378 78 78 5 5 381 381 381 384 384 384 115 115 115 115
 115 115 41 41 41 297 297 297 297 209 209 378 378 378 378 378 378 5 5 5
 381 381 381 384 384 44 44 44 115 115 115 115 41 41 71 71 297 297 209 209
 209 378 378 378 323 323 327 327 327 5 381 381 384 384 384 44 44 44 44 44
 271 271 71 71 71 71 71 71 209 209 209 209 73 323 323 323 327 327 327 327
 339 339 384 384 44 44 44 44 44 271 271 271 223 223 71 71 71 71 209 209
 209 73 73 73 323 323 327 327 327 327 210 210 339 384 44 44 44 44 44 271
 271 271 223 223 223 71 71 71 71 40 40 261 261 73 323 327 327 210 210 210
 210 210 210 44 44 44 44 44 44 271 271 223 223 223 223 71 71 71 131 261
 261 261 261 261 73 327 210 210 210 210 210 210 210 142 142 142 44 44 44 271
 299 299 223 223 223 223 131 131 131 131 261 261 261 261 73 210 210 210 210 210
 210 210 142 142 142 142 142 142 44 271 299 299 299 223 223 131 131 131 131 131
 296 296 296 296 296 35 35 210 210 210 210 391 142 142 142 142 142 142 142 299
 299 299 299 299 186 131 131 131 131 296 296 296 296 25 25 35 35 35 35 210
 210 391 142 142 142 142 142 142 142 299 133 133 133 186 186 186 131 131 131 296
 296 296 296 25 25 25 35 35 35 35 276 276 142 142 142 142 142 142 388 388
 133 133 186 186 186 186 186 131 296 296 296 296 296 25 25 25 35 35 35 35
 276 364 364 364 364 364 142 142 388 388 388 133 186 186 186 186 186 186 296 296
 296 296 296 253 253 253 253 35 35 35 218 364 364 364 364 364 142 388 388 388
 388 305 305 305 305 305 305 212 356 356 356 356 356 253 253 253 253 253 253 218
 218 218 218 364 364 364 126 388 388 388 335 305 305 305 305 305 305 212 212 356
 356 356 356 253 253 253 253 253 253 218 218 218 218 218 364 126 126 126 335 335
 335 305 305 305 305 305 212 212 212 212 356 356 356 253 253 253 253 253 253 218
 218 218 218 218 218 126 126 126 335 335 335 335 305 305 305 305 212 212 212 212
 356 356 356 253 253 253 363 363 363 363 218 218 218 65 65 65 126 126 335 335
 335 335 305 294 294 294 212 212 212 212 356 316 316 363 363 363 363 363 363 363
 363 218 65 65 65 65 65 55 335 335 354 354 294 294 294 294 294 295 295 295
 295 316 347 363 363 363 363 363 363 363 363 363 65 65 65 65 65 65 331 331
 331 331 294 294 294 294 295 295 295 295 295 347 347 347 347 363 363 363 363 363
 363 363 65 65 65 65 65 65 331 331 331 331 331 294 294 295 295 295 295 295
 295 347 347 347 347 363 363 363 363 363 363 363 65 65 65 65 65 331 331 331
 331 331 331 362 295 295 295 295 295 295 295 347 347 347 347 347 352 352 352 144
 144 144 144 144 144 178 178 178 331 331 331 331 362 362 362 295 295 295 295 295
 295 347 347 347 347 352 352 352 352 144 144 144 144 144 144 178 178 178 178 331
 331 215 362 38 38 38 295 295 295 295 267 267 355 355 355 352 352 352 352 144
 144 144 144 144 389 389 178 178 178 178 215 215 215 38 38 38 38 74 393 393
 267 267 267 355 355 169 169 169 144 144 144 144 144 144 389 389 389 389 140 140
 215 215 215 38 49 49 49 393 393 393 267 267 267 240 240 169 169 169 169 144
 144 144 144 389 389 389 389 389 389 215 215 215 215 215 49 49 49 393 393 393
 267 267 267 240 240 169 169 169 169 169 144 144 144 389 389 389 389 389 389 215
 215 215 215 215 49 49 49 49 365 365 267 267 267 240 240 169 169 169 169 169
 144 144 258 389 389 389 389 389 389 215 115 215 215 215 297 297 297 297 297 365
 365 378 378 378 378 378 169 169 169 169 5 258 258 258 389 389 389 389 115 115
 115 115 215 41 297 297 297 297 297 297 297 378 378 378 378 378 78 78 5 5
 5 381 258 258 389 389 389 115 115 115 115 115 115 41 297 297 297 297 297 297
 297 378 378 378 378 378 378 5 5 5 5 381 381 384 384 389 115 115 115 115
 115 115 115 41 297 297 297 297 297 297 297 378 378 378 378 378 327 327 5 5
 5 381 381 384 44 44 44 44 115 115 115 115 115 223 71 297 297 297 297 297
 297 378 378 378 378 327 327 327 327 327 339 339 339 384 44 44 44 44 44 115
 271 271 223 223 71 71 71 71 209 209 209 73 73 73 73 327 327 327 327 327
 339 339 339 339 44 44 44 44 44 44 271 271 223 223 223 71 71 71 264 264
 73 73 73 73 73 327 327 327 327 327 339 339 339 339 44 44 44 44 44 44
 271 223 223 223 223 223 71 71 264 264 264 73 73 73 73 327 327 327 327 210
 339 339 339 339 44 44 44 44 44 44 299 223 223 223 223 223 71 131 264 264
 264 73 73 73 73 327 327 327 210 210 210 210 142 142 142 142 142 44 44 44
 299 299 223 223 223 223 131 131 131 264 264 261 73 325 73 327 327 210 210 210
 210 210 142 142 142 142 142 142 142 123 299 299 299 299 372 131 131 131 131 131
 296 296 296 325 325 325 35 210 210 210 210 391 142 142 142 142 142 142 142 299
 299 299 299 299 372 372 131 131 131 296 296 296 296 296 296 35 35 35 35 276
 276 142 142 142 142 142 142 142 142 299 299 299 299 299 372 372 372 372 131 296
 296 296 296 296 25 25 35 35 35 276 276 276 364 142 142 142 142 142 142 299
 388 299 299 372 372 372 372 372 296 296 296 296 296 296 25 253 35 35 35 276
 276 364 364 364 364 364 142 142 388 388 388 299 186 186 372 372 372 372 368 296
 296 296 296 296 253 253 253 253 253 276 276 364 364 364 364 364 142 388 388 388
 388 388 305 305 305 305 372 238 301 301 356 356 356 253 253 253 253 253 253 287
 218 218 364 364 364 364 364 388 388 388 335 305 305 305 305 305 305 212 301 301
 356 356 356 253 253 253 253 253 253 287 287 218 218 364 364 364 126 126 126 335
 335 335 305 305 305 305 212 212 212 301 356 356 356 253 253 253 253 253 287 287
 287 287 218 364 364 126 126 126 335 335 335 335 305 305 305 294 212 212 212 212
 356 356 316 253 253 253 253 363 363 287 287 287 287 65 65 65 126 126 335 335
 335 335 335 294 294 294 294 212 212 212 316 316 316 316 316 363 363 363 363 363
 363 287 65 65 65 65 65 126 335 335 331 335 294 294 294 294 294 295 295 295
 316 316 316 316 316 363 363 363 363 363 363 363 65 65 65 65 65 65 331 331
 331 331 294 294 294 294 294 295 295 295 295 316 316 347 347 363 363 363 363 363
 363 363 65 65 65 65 65 65 331 331 331 331 331 294 294 294 295 295 295 295
 295 347 347 347 347 347 363 363 363 363 363 363 65 65 65 65 65 331 331 331
 331 331 331 362 295 295 295 295 295 295 295 347 347 347 347 352 352 352 352 144
 144 144 144 144 144 178 178 178 178 331 331 331 38 38 38 38 295 295 295 295
 295 347 347 347 347 352 352 352 352 144 144 144 144 144 144 178 178 178 178 331
 331 215 38 38 38 38 38 295 74 74 267 267 267 355 352 352 352 352 352 144
 144 144 144 144 144 178 178 178 178 178 215 215 38 38 38 38 38 74 74 74
 267 267 267 355 352 352 352 352 144 144 144 144 144 144 389 389 389 178 178 178
 215 215 215 38 38 38 38 74 74 74 267 267 267 240 240 169 169 169 169 144
 144 144 144 144 389 389 389 389 389 215 215 215 215 38 38 49 49 74 74 74
 267 267 267 240 240 169 169 169 169 144 144 144 144 389 389 389 389 389 389 215
 215 215 215 38 38 49 49 74 74 74 267 267 267 240 378 169 169 169 169 169
 144 144 258 258 389 389 389 389 389 215 215 215 215 38 38 297 297 297 297 297
 267 378 378 378 378 378 169 169 169 5 144 258 258 258 258 389 389 389 115 115
 115 115 215 349 297 297 297 297 297 297 297 378 378 378 378 378 378 169 5 5
 5 258 258 258 258 389 389 115 115 115 115 115 115 349 349 297 297 297 297 297
 297 378 378 378 378 378 378 5 5 5 5 381 258 258 258 389 115 115 115 115
 115 115 349 349 349 349 297 297 297 297 297 378 378 378 378 378 327 327 327 5
 5 5 339 339 44 44 44 44 115 115 115 115 349 349 349 349 349 297 297 297
 297 73 73 73 73 327 327 327 327 327 339 339 339 339 44 44 44 44 44 115
 123 223 223 349 349 349 349 297 297 297 73 73 73 73 73 327 327 327 327 327
 339 339 339 339 44 44 44 44 44 44 123 223 223 223 223 223 71 264 264 264
 264 73 73 73 73 327 327 327 327 327 339 339 339 339 44 44 44 44 44 44
 123 123 223 223 223 223 71 264 264 264 264 73 73 73 73 327 327 327 327 327
 339 339 339 339 142 44 44 44 44 123 123 123 223 223 223 223 223 264 264 264
 264 264 73 73 73 327 327 327 327 327 339 339 339 142 142 142 142 142 44 123
 123 123 223 223 223 223 131 131 264 264 264 264 325 325 325 327 327 327 327 327
 210 339 142 142 142 142 142 142 142 123 299 299 299 372 372 372 131 131 131 264
 296 296 325 325 325 325 327 327 327 276 276 142 142 142 142 142 142 142 142 123
 299 299 299 372 372 372 372 131 131 296 296 296 296 325 325 325 4 35 276 276
 276 276 142 142 142 142 142 142 142 299 299 299 299 372 372 372 372 372 131 296
 296 296 296 296 325 4 4 35 276 276 276 276 364 364 142 142 142 142 142 388
 388 299 299 372 372 372 372 372 368 368 296 296 296 296 253 253 253 35 276 276
 276 276 364 364 364 364 142 142 388 388 388 244 244 244 372 372 372 372 368 368
 368 296 296 253 253 253 253 253 253 276 276 364 364 364 364 364 142 388 388 388
 388 244 244 244 305 372 372 238 301 301 301 296 253 253 253 253 253 253 253 287
 276 364 364 364 364 364 364 388 388 388 335 335 305 244 305 42 42 301 301 301
 301 301 253 253 253 253 253 253 253 287 287 287 364 364 364 364 126 126 126 335
 335 335 305 305 305 10 10 238 238 301 301 236 253 253 253 253 253 253 287 287
 287 287 364 364 364 364 126 126 335 335 335 335 335 3 294 294 294 212 238 301
 301 236 253 253 253 253 253 253 287 287 287 287 287 364 65 65 126 126 335 335
 335 335 335 294 294 294 294 294 212 301 316 316 316 316 316 253 253 363 363 363
 287 287 272 65 65 65 65 126 335 335 331 335 294 294 294 294 294 294 295 295
 316 316 316 316 316 363 363 363 363 363 363 272 65 65 65 65 65 65 331 331
 331 331 294 294 294 294 294 295 295 295 295 316 316 316 316 363 363 363 363 363
 363 272 65 65 65 65 65 65 331 331 331 331 331 294 294 294 295 295 295 295
 295 347 347 347 347 347 363 363 363 363 363 272 272 65 65 65 65 178 331 331
 331 331 197 250 38 250 295 295 295 295 295 347 347 347 347 352 352 352 352 352
 144 144 144 144 178 178 178 178 178 331 331 331 38 38 38 38 38 295 74 74
 74 347 347 347 352 352 352 352 352 352 144 144 144 144 144 178 178 178 178 178
 331 38 38 38 38 38 38 74 74 74 74 267 267 352 352 352 352 352 352 144
 144 144 144 144 144 178 178 178 178 344 215 215 38 38 38 38 38 74 74 74
 74 267 176 176 232 352 352 352 144 144 144 144 144 144 144 389 344 344 344 344
 215 215 38 38 38 38 38 74 74 74 74 267 176 176 176 288 288 288 288 144
 144 144 144 144 389 389 389 389 344 215 215 215 38 38 38 38 74 74 74 74
 74 267 267 176 176 288 288 288 288 144 144 144 144 144 389 389 389 389 389 215
 215 215 38 38 38 38 74 74 74 74 74 267 176 176 176 288 288 288 288 144
 144 144 258 258 258 389 389 389 389 215 50 215 38 38 38 297 155 155 74 74
 74 378 378 378 378 378 288 288 288 158 144 258 258 258 258 258 389 389 50 50
 50 50 349 349 297 297 297 297 297 297 297 378 378 378 378 378 84 288 158 158
 158 258 258 258 258 258 389 50 50 50 50 50 349 349 349 349 349 297 297 297
 310 310 378 378 378 378 378 158 158 158 158 258 258 258 258 258 50 50 50 50
 50 50 349 349 349 349 349 297 297 297 310 310 310 378 378 378 327 327 327 158
 158 339 258 258 172 44 44 44 50 50 50 50 349 349 349 349 349 349 297 297
 310 310 73 73 73 327 327 327 327 327 339 339 339 339 339 44 44 44 44 50
 123 123 349 349 349 349 349 349 13 264 310 73 73 73 73 327 327 327 327 327
 339 339 339 339 44 44 44 44 44 44 123 123 223 223 223 223 349 264 264 264
 264 73 73 73 73 327 327 327 327 327 339 339 339 339 44 44 44 44 44 44
 123 123 223 223 223 223 264 264 264 264 264 73 73 73 73 327 327 327 327 327
 339 339 339 339 142 142 142 44 123 123 123 123 223 223 223 223 264 264 264 264
 264 264 73 73 73 327 327 327 327 327 339 339 339 142 142 142 142 142 123 123
 123 123 123 223 223 372 131 264 264 264 264 264 325 325 325 4 4 327 327 327
 339 339 142 142 142 142 142 142 142 123 36 36 36 372 372 372 372 264 264 264
 264 325 325 325 325 4 4 4 327 276 276 276 369 142 142 142 142 142 142 36
 36 36 36 372 372 372 48 48 131 264 296 296 325 325 325 4 4 4 276 276
 276 276 142 142 142 142 142 142 142 36 36 36 36 372 372 372 372 372 372 296
 296 296 296 325 325 4 4 255 276 276 276 276 364 364 142 142 142 142 142 36
 36 244 244 244 372 372 372 372 368 368 368 296 296 325 253 4 255 255 255 276
 276 276 364 364 364 364 142 142 142 36 244 244 244 244 42 42 42 42 368 368
 368 296 296 253 253 253 253 255 255 276 276 276 364 364 364 364 93 142 388 388
 244 244 244 244 42 42 42 238 238 368 368 236 236 253 253 253 253 253 255 276
 276 364 364 364 364 364 93 93 388 388 335 244 244 244 42 42 42 238 238 301
 301 236 236 253 253 253 253 253 253 287 287 287 364 364 364 93 93 93 335 335
 335 335 3 3 10 10 10 238 238 301 301 236 236 253 253 253 253 253 287 287
 287 287 364 364 93 93 93 93 335 335 335 335 3 3 10 10 10 10 238 301
 301 236 236 253 253 253 253 253 253 287 287 287 272 272 272 93 93 126 335 335
 335 335 3 3 10 10 10 10 10 301 367 367 316 316 316 253 253 363 363 287
 287 272 272 272 272 272 65 148 335 335 335 335 294 294 294 294 294 294 295 295
 316 316 316 316 316 316 363 363 363 363 272 272 272 272 272 272 148 148 331 331
 331 331 197 294 294 294 294 295 295 295 367 316 316 316 316 316 352 363 363 363
 272 272 272 272 272 272 65 148 331 331 331 331 197 250 294 250 250 295 295 295
 295 347 347 347 347 352 352 352 352 352 272 272 272 272 272 344 344 178 331 331
 197 197 197 250 250 250 250 250 250 74 74 347 347 347 233 233 233 233 233 233
 144 144 144 272 272 344 344 344 344 344 197 197 197 250 38 250 250 74 74 74
 74 74 347 233 233 233 233 233 233 233 144 144 144 144 230 344 344 344 344 344
 197 38 38 38 38 38 38 74 74 74 74 74 232 232 232 233 233 233 233 144
 144 144 144 144 230 344 344 344 344 344 23 23 38 38 38 38 38 74 74 74
 74 74 176 232 232 232 232 233 288 144 144 144 144 144 144 344 344 344 344 344
 23 23 38 38 38 38 74 74 74 74 74 74 176 176 176 232 288 288 288 144
 144 144 144 144 308 308 308 344 344 344 23 23 23 38 38 38 74 74 74 74
 74 267 176 176 176 288 288 288 288 288 144 144 144 150 308 308 308 308 344 23
 23 23 23 38 38 38 155 74 74 74 74 74 176 176 176 288 288 288 288 288
 144 150 150 150 150 308 308 389 50 23 50 23 23 38 38 155 155 155 155 155
 74 310 176 176 176 288 288 288 288 288 144 150 150 150 150 150 389 50 50 50
 50 50 23 349 349 349 155 155 155 155 310 310 310 310 84 84 84 158 158 158
 158 150 150 150 150 150 150 50 50 50 50 50 50 349 349 349 349 155 155 155
 310 310 310 310 84 84 84 158 158 158 158 158 150 150 150 150 50 50 50 50
 50 50 50 349 349 349 349 13 13 310 310 310 310 310 84 84 84 327 158 158
 158 158 172 172 172 172 50 50 50 50 50 50 349 349 349 349 349 13 13 310
 310 310 310 73 73 327 327 327 130 130 339 339 172 172 172 172 44 44 50 50
 50 50 349 349 349 349 13 13 13 13 310 310 73 73 73 327 327 327 130 130
 339 339 339 172 172 44 16 16 16 50 123 123 349 349 349 349 13 13 379 379
 379 73 73 73 73 327 327 327 130 130 339 339 339 339 172 247 16 16 16 123
 123 123 123 223 223 97 379 379 379 379 379 73 73 73 73 327 327 327 327 327
 339 339 339 339 247 247 142 16 16 123 123 123 123 223 223 97 379 379 379 379
 379 379 73 73 73 4 130 327 327 327 339 339 369 142 247 247 142 142 123 123
 123 36 36 36 372 372 379 379 379 379 379 379 325 325 4 4 4 4 327 327
 339 369 369 369 142 142 142 142 36 36 36 36 36 372 372 372 48 379 379 379
 379 325 325 325 4 4 4 4 327 276 276 369 369 369 142 142 142 142 36 36
 36 36 36 372 372 48 48 48 383 383 383 296 325 325 4 4 4 4 4 276
 276 276 369 369 142 142 142 142 36 36 36 36 244 372 372 372 48 48 383 383
 383 296 194 325 4 4 4 255 255 276 276 276 369 364 142 142 142 142 36 36
 36 244 244 244 42 42 42 42 383 383 383 194 194 194 194 194 255 255 255 276
 276 276 364 364 364 364 142 142 36 36 244 244 244 244 42 42 42 42 368 368
 368 236 194 194 194 253 255 255 255 255 276 276 364 364 364 364 93 93 312 36
 244 244 244 244 42 42 42 42 238 238 236 236 236 194 194 253 255 255 255 255
 1 1 364 364 364 93 93 93 93 312 244 244 244 244 42 42 42 238 238 301
 236 236 236 236 253 253 253 253 255 287 1 1 1 364 93 93 93 93 93 312
 335 3 3 3 10 10 10 238 238 301 236 236 236 236 253 253 253 253 287 287
 287 1 1 93 93 93 93 93 335 335 335 3 3 3 10 10 10 10 238 301
 236 236 236 236 253 253 253 253 253 287 287 272 272 272 272 93 93 93 335 335
 335 3 3 3 10 10 10 10 10 367 367 367 367 367 253 253 253 363 340 340
 272 272 272 272 272 272 148 148 148 335 197 197 3 3 10 10 10 10 10 367
 367 367 367 367 316 316 363 233 340 340 272 272 272 272 272 272 148 148 148 148
 197 197 197 250 250 250 250 250 250 367 367 367 367 367 316 233 233 233 233 233
 272 272 272 272 272 272 148 148 148 148 197 197 197 250 250 250 250 250 250 250
 367 367 367 347 233 233 233 233 233 233 233 272 272 272 272 344 344 344 344 344
 197 197 197 250 250 250 250 250 250 183 183 183 100 100 233 233 233 233 233 233
 144 144 144 272 230 344 344 344 344 344 344 197 197 250 250 250 250 250 74 183
 183 183 100 100 233 233 233 233 233 233 144 144 144 230 230 344 344 344 344 344
 344 197 38 38 38 38 38 74 74 183 183 183 100 100 232 232 233 233 233 233
 144 144 144 230 230 344 344 344 344 344 23 23 38 38 38 38 74 74 74 74
 183 183 100 100 232 232 232 233 233 144 144 144 144 230 230 230 344 344 344 344
 23 23 23 38 38 38 74 74 74 74 74 74 176 176 176 232 288 288 288 288
 144 144 144 230 308 308 308 344 344 23 23 23 23 38 38 38 74 74 74 74
 74 74 176 176 176 288 288 288 288 288 144 144 150 150 308 308 308 308 344 23
 23 23 23 38 38 173 155 155 74 74 74 74 176 176 176 288 288 288 288 288
 213 213 150 150 150 308 308 308 23 23 50 23 23 173 173 173 155 155 155 155
 74 310 176 176 176 288 288 288 288 158 213 213 150 150 150 150 308 50 50 50
 50 50 23 173 173 173 155 155 155 155 310 310 310 310 84 84 84 158 158 158
 158 213 150 150 150 150 150 50 50 50 50 50 50 349 349 349 349 155 155 155
 310 310 310 310 84 84 84 158 158 158 158 158 150 150 150 150 150 50 50 50
 50 50 50 349 349 349 349 13 13 310 310 310 310 310 84 84 84 130 158 158
 158 158 172 172 172 172 50 50 50 50 50 50 349 349 349 349 13 13 13 13
 310 310 310 310 73 130 130 130 130 130 7 7 172 172 172 172 342 342 50 50
 50 50 349 349 349 349 13 13 13 13 310 310 318 318 318 130 130 130 130 130
 7 7 7 172 172 172 16 16 16 16 123 123 349 349 97 97 13 13 379 379
 379 73 318 318 318 130 130 130 130 130 7 7 7 7 247 247 16 16 16 16
 123 123 123 97 97 97 97 379 379 379 379 379 318 318 318 130 130 130 130 130
 7 7 7 7 247 247 247 16 16 123 123 36 36 97 97 97 97 379 379 379
 379 379 73 73 4 4 130 130 130 130 7 7 369 369 247 247 247 142 36 123
 36 36 36 36 97 97 379 379 379 379 379 379 14 4 4 4 4 4 130 130
 7 369 369 369 369 247 142 142 36 36 36 36 36 36 372 48 48 379 379 379
 379 379 14 4 4 4 4 4 130 130 369 369 369 369 369 142 142 142 36 36
 36 36 36 372 372 48 48 48 383 383 383 383 14 4 4 4 4 4 4 276
 276 369 369 369 369 142 142 142 36 36 36 36 36 244 42 42 48 48 383 383
 383 194 194 194 4 4 4 255 255 276 276 276 369 369 142 142 142 142 36 36
 36 244 244 244 42 42 42 42 383 383 383 194 194 194 194 194 255 255 255 276
 276 276 364 364 364 364 142 312 312 312 312 244 244 244 42 42 42 42 383 383
 236 194 194 194 194 194 255 255 255 255 276 276 364 364 93 93 93 312 312 312
 312 244 244 244 42 42 42 42 238 236 236 236 236 194 194 194 255 255 255 255
 1 1 1 93 93 93 93 93 312 312 312 244 244 244 42 42 42 42 238 236
 236 236 236 194 194 194 255 255 255 255 1 1 1 93 93 93 93 93 312 312
 312 3 3 3 10 10 10 10 238 236 236 236 236 236 194 253 253 255 255 1
 1 1 1 93 93 93 93 93 312 312 3 3 3 3 10 10 10 10 10 236
 236 236 236 236 253 253 253 188 340 340 340 272 272 272 272 93 93 148 148 148
 3 3 3 3 10 10 10 10 10 367 367 367 367 367 367 188 188 188 340 340
 340 340 272 272 272 272 148 148 148 148 197 197 3 3 10 10 10 10 10 367
 367 367 367 367 367 188 188 233 340 340 340 340 272 272 272 272 148 148 148 148
 197 197 197 250 250 250 250 250 250 367 367 367 367 367 367 233 233 233 233 340
 340 340 272 272 272 272 148 148 148 148 197 197 197 250 250 250 250 250 250 367
 367 367 367 367 233 233 233 233 233 233 340 340 272 272 272 344 344 344 344 344
 197 197 197 250 250 250 250 250 183 183 183 183 100 100 233 233 233 233 233 233
 152 230 230 230 230 344 344 344 344 344 344 197 197 250 250 250 250 250 183 183
 183 183 100 100 100 233 233 233 233 233 144 230 230 230 230 344 344 344 344 344
 23 23 23 38 38 38 38 74 183 183 183 183 100 100 100 232 233 233 233 233
 144 230 230 230 230 230 344 344 344 344 23 23 23 38 38 38 74 74 183 183
 183 183 100 100 100 232 232 233 233 233 144 230 230 230 230 230 344 344 344 344
 23 23 23 38 38 38 74 74 74 183 183 183 100 100 100 232 288 288 288 288
 144 230 230 230 230 230 308 344 344 344 23 23 23 38 38 173 74 74 74 74
 160 160 176 176 176 288 288 288 288 288 213 213 230 230 308 308 308 308 344 104
 23 23 23 173 173 173 173 155 155 160 160 160 176 176 176 288 288 288 288 213
 213 213 213 150 150 308 308 308 104 104 104 23 23 173 173 173 173 155 155 160
 160 160 176 176 176 288 288 288 288 213 213 213 213 150 150 150 308 104 104 104
 50 50 173 173 173 173 173 155 155 160 160 160 310 84 84 84 84 158 158 158
 213 213 150 150 150 150 150 50 50 50 50 50 50 173 173 173 173 155 155 160
 310 310 310 310 84 84 84 158 158 158 158 213 150 150 150 150 50 50 50 50
 50 50 50 349 349 349 13 13 13 310 310 310 310 310 84 84 84 130 158 158
 158 158 172 172 172 172 342 342 50 50 50 50 349 349 349 349 13 13 13 13
 157 157 157 310 73 130 130 130 130 130 7 7 172 172 172 172 342 342 50 50
 50 50 349 349 349 349 13 13 13 13 157 157 157 318 318 130 130 130 130 130
 7 7 7 172 172 172 342 342 16 50 123 36 97 97 97 97 13 13 379 379
 379 379 318 318 318 130 130 130 130 130 7 7 7 7 247 247 16 16 16 16
 123 36 97 97 97 97 97 379 379 379 379 379 318 318 318 130 130 130 130 130
 7 7 7 7 247 247 247 16 16 123 36 36 36 97 97 97 97 379 379 379
 379 379 14 14 4 4 130 130 130 130 7 7 369 369 247 247 247 142 36 36
 36 36 36 97 97 97 97 379 379 379 379 379 14 14 4 4 4 4 130 130
 369 369 369 369 369 247 142 142 36 36 36 36 36 36 260 260 48 379 379 379
 379 14 14 14 4 4 4 4 4 146 369 369 369 369 369 142 142 36 36 36
 36 36 36 260 260 260 260 48 383 383 383 14 14 14 4 4 4 4 4 146
 146 369 369 369 369 142 142 36 36 36 36 36 36 244 260 260 260 42 383 383
 383 194 194 194 194 4 4 4 255 146 146 146 369 369 369 198 198 312 312 36
 312 312 244 244 42 42 42 42 383 383 383 194 194 194 194 194 255 255 255 146
 146 146 198 198 198 198 198 312 312 312 312 312 244 244 42 42 42 42 383 383
 194 194 194 194 194 194 255 255 255 255 146 1 198 198 198 93 198 312 312 312
 312 312 244 244 42 42 42 42 238 236 236 236 194 194 194 194 255 255 255 255
 1 1 1 93 93 93 93 312 312 312 312 312 244 244 42 42 42 42 324 236
 236 236 236 194 194 194 255 255 255 255 1 1 1 93 93 93 93 93 312 312
 312 3 3 3 10 10 10 10 324 324 236 236 236 194 194 194 255 255 255 1
 1 1 1 132 93 93 93 93 312 312 3 3 3 3 10 10 10 10 324 324
 324 236 236 194 188 188 188 188 188 340 340 340 272 132 272 93 93 93 148 148
 3 3 3 3 10 10 10 10 324 324 324 367 367 367 188 188 188 188 188 340
 340 340 272 272 272 272 148 148 148 148 197 197 3 3 10 10 10 10 324 324
 367 367 367 367 188 188 188 188 188 340 340 340 272 272 272 272 148 148 148 148
 197 197 197 250 250 250 250 250 250 367 367 367 367 367 188 188 188 188 188 340
 340 340 272 272 272 272 148 148 148 148 197 197 197 250 250 250 250 250 250 367
 367 367 367 367 188 188 233 233 233 152 340 340 272 272 272 344 344 344 344 344
 197 197 197 250 250 250 250 250 183 183 183 183 100 188 188 188 233 233 152 152
 152 152 230 230 230 344 344 344 344 344 344 197 19 19 19 250 250 183 183 183
 183 183 100 100 100 233 233 233 233 152 152 230 230 230 230 230 344 344 344 344
 11 11 19 19 19 19 59 183 183 183 183 183 100 100 100 100 233 233 233 233
 230 230 230 230 230 230 344 344 344 344 11 11 11 19 19 19 59 183 183 183
 183 100 100 100 100 100 233 233 233 233 230 230 230 230 230 230 230 344 344 344
 11 11 11 11 19 59 59 183 183 183 183 100 100 100 100 100 288 288 288 288
 230 230 230 230 230 230 230 344 344 104 11 11 11 11 173 173 173 74 160 160
 160 160 100 100 100 288 288 288 288 288 213 213 230 230 230 230 230 54 104 104
 104 11 11 173 173 173 173 173 160 160 160 160 176 176 176 288 288 288 70 213
 213 213 213 213 150 308 54 54 104 104 104 23 11 173 173 173 173 173 160 160
 160 160 160 176 47 47 70 70 70 213 213 213 213 213 150 150 54 54 104 104
 104 104 173 173 173 173 173 160 160 160 160 160 160 47 47 47 47 70 70 213
 213 213 213 213 150 150 54 54 104 104 50 50 136 173 173 173 173 160 160 160
 160 157 157 47 47 47 47 158 158 158 213 213 213 213 150 373 342 342 50 50
 50 50 136 136 349 349 13 160 160 160 157 157 157 157 47 47 47 130 158 158
 158 213 172 172 172 373 342 342 342 50 50 50 28 349 349 349 13 13 13 157
 157 157 157 157 157 130 130 130 130 130 7 7 172 172 172 342 342 342 342 50
 50 28 28 28 97 97 13 13 13 157 157 157 157 157 318 130 130 130 130 130
 7 7 7 172 172 342 342 342 342 50 36 28 28 97 97 97 97 13 379 379
 157 157 157 318 318 130 130 130 130 130 7 7 7 7 247 247 342 342 342 16
 36 36 97 97 97 97 97 379 379 379 379 379 318 318 318 130 130 130 130 130
 7 7 7 247 247 247 247 221 221 36 36 36 97 97 97 97 97 350 379 379
 379 379 14 14 14 4 130 130 130 130 7 7 369 369 247 247 247 221 221 36
 36 36 36 350 97 350 350 350 379 379 379 14 14 14 14 4 4 277 277 146
 58 369 369 369 369 247 247 221 36 36 36 36 36 260 260 260 260 379 379 379
 379 14 14 14 14 4 4 277 277 146 58 58 369 369 369 142 142 36 36 36
 36 36 36 260 260 260 260 260 383 383 383 14 14 14 14 4 4 277 146 146
 58 58 369 369 369 198 198 36 36 36 312 36 36 260 260 260 260 260 383 383
 194 194 194 194 194 194 285 285 146 146 146 146 146 198 198 198 198 312 312 312
 312 312 244 244 260 260 260 260 383 383 194 194 194 194 194 194 285 285 285 146
 146 146 198 198 198 198 198 312 312 312 312 312 244 244 42 42 42 42 42 194
 194 194 194 194 194 194 285 285 285 146 146 146 198 198 198 198 198 312 312 312
 312 312 244 244 42 42 42 42 324 194 194 194 194 194 194 194 285 285 285 285
 1 1 198 198 198 198 198 312 312 312 312 312 244 244 42 42 42 324 324 324
 324 236 194 194 194 194 285 285 285 32 32 32 198 198 198 198 198 198 312 312
 312 312 3 3 10 10 10 324 324 324 324 324 194 194 194 194 188 188 188 32
 32 32 132 132 132 93 93 93 312 312 3 3 3 3 10 10 10 324 324 324
 324 324 324 194 188 188 188 188 188 32 32 32 132 132 132 93 93 93 148 312
 181 3 3 86 10 10 10 324 324 324 324 324 367 188 188 188 188 188 188 340
 340 340 340 132 272 272 148 148 148 148 197 197 86 86 86 10 10 324 324 324
 324 367 367 188 188 188 188 188 188 340 340 340 340 272 272 214 148 148 148 148
 197 197 197 86 86 250 250 250 324 324 367 367 367 188 188 188 188 188 152 152
 340 340 340 272 272 272 148 148 148 148 197 197 197 250 250 250 250 250 250 324
 367 367 367 188 188 188 188 188 152 152 152 340 340 272 272 344 344 344 344 344
 197 197 19 19 19 250 250 250 183 183 183 183 100 188 188 188 188 152 152 152
 152 152 230 230 230 344 344 344 344 344 11 11 19 19 19 19 59 183 183 183
 183 183 100 100 100 233 233 152 152 152 152 230 230 230 230 230 344 344 344 344
 11 11 19 19 19 19 59 183 183 183 183 183 100 100 100 100 233 152 152 152
 230 230 230 230 230 230 230 344 344 344 11 11 11 19 19 19 59 59 183 183
 183 100 100 100 100 100 233 233 233 152 230 230 230 230 230 230 230 344 344 344
 11 11 11 11 19 59 59 59 183 183 183 160 100 100 100 100 288 288 288 185
 185 185 230 230 230 230 230 230 54 104 11 11 11 11 173 173 59 59 160 160
 160 160 385 385 385 288 70 70 70 70 185 185 185 230 230 230 230 54 54 104
 104 11 11 11 173 173 173 160 160 160 160 160 160 385 385 70 70 70 70 70
 213 213 213 213 230 230 54 54 54 104 104 11 11 173 173 173 173 160 160 160
 160 160 160 385 47 47 70 70 70 70 213 213 213 213 150 54 54 54 54 104
 104 104 136 136 173 173 173 160 160 160 160 160 160 47 47 47 47 70 70 213
 213 213 213 213 373 373 54 54 54 104 50 136 136 136 136 173 173 160 160 160
 160 160 160 47 47 47 47 47 70 213 213 213 213 213 373 373 373 54 54 50
 50 136 136 136 265 265 265 160 160 160 157 157 157 47 47 47 47 47 47 158
 213 213 213 373 373 373 373 342 342 50 50 28 28 136 265 265 265 13 160 157
 157 157 157 157 47 47 47 47 130 226 226 226 172 172 373 373 342 342 342 50
 28 28 28 28 28 265 265 265 360 360 157 157 157 157 47 130 130 130 130 226