# vtk DataFile Version 2.0
Data set from IO Version 6.4.197.9a0dee2
ASCII

DATASET RECTILINEAR_GRID
DIMENSIONS 31 31 31
X_COORDINATES 31 float
-2.866667 2.866667 8.599999 14.333332 20.066666 25.799999 31.533331 37.266666 43.000000 48.733334 54.466667 60.200001 65.933327 71.666664 77.399994 83.133331 88.866661 94.599991 100.333328 106.066658 111.799995 
117.533325 123.266663 129.000000 134.733322 140.466660 146.199997 151.933319 157.666656 163.399994 169.133331 
Y_COORDINATES 31 float
-2.866667 2.866667 8.599999 14.333332 20.066666 25.799999 31.533331 37.266666 43.000000 48.733334 54.466667 60.200001 65.933327 71.666664 77.399994 83.133331 88.866661 94.599991 100.333328 106.066658 111.799995 
117.533325 123.266663 129.000000 134.733322 140.466660 146.199997 151.933319 157.666656 163.399994 169.133331 
Z_COORDINATES 31 float
-2.866667 2.866667 8.599999 14.333332 20.066666 25.799999 31.533331 37.266666 43.000000 48.733334 54.466667 60.200001 65.933327 71.666664 77.399994 83.133331 88.866661 94.599991 100.333328 106.066658 111.799995 
117.533325 123.266663 129.000000 134.733322 140.466660 146.199997 151.933319 157.666656 163.399994 169.133331 
CELL_DATA 27000
SCALARS FeatureIds int 1
LOOKUP_TABLE default
 352 352 359 359 166 166 166 166 166 189 189 315 315 315 315 315 173 173 173 173
 367 367 293 293 293 293 293 293 352 352 352 359 359 359 359 166 166 166 166 38
 315 315 315 315 315 315 173 173 173 173 367 367 367 293 293 293 293 293 352 352
 163 163 163 359 359 166 166 166 38 38 315 315 315 315 315 315 173 173 173 173
 367 367 367 293 293 293 293 293 293 352 163 163 163 163 163 166 166 166 38 38
 38 315 315 315 315 315 173 173 173 173 367 367 367 367 293 293 293 384 384 163
 163 163 163 163 163 163 166 38 38 38 38 315 315 315 315 315 173 173 173 378
 378 367 367 367 367 384 384 384 384 163 163 163 163 163 163 163 41 41 38 38
 165 165 315 315 315 315 173 378 378 378 378 378 367 367 194 194 384 384 384 163
 163 163 163 163 163 41 41 41 41 165 165 165 165 165 165 165 3 3 378 378
 378 378 367 194 194 194 194 194 384 163 8 163 163 163 163 41 41 41 41 258
 258 165 165 165 165 165 3 3 3 378 378 378 367 194 194 194 194 194 8 8
 8 236 236 236 255 255 41 41 180 180 258 258 165 165 165 165 3 3 3 251
 251 251 194 194 194 194 194 194 8 8 8 236 236 236 255 255 255 255 180 180
 258 258 165 165 165 165 251 251 251 251 251 251 251 194 194 194 194 8 8 8
 8 236 236 236 255 255 255 255 255 180 180 258 165 165 165 165 251 251 251 251
 251 251 251 251 194 194 8 8 8 8 190 236 236 236 255 255 255 255 255 180
 180 188 188 188 188 188 251 251 251 251 251 251 251 251 194 194 8 8 190 190
 59 236 236 236 233 233 233 255 255 180 188 188 188 188 188 188 251 251 251 251
 251 251 251 251 251 107 107 107 190 190 59 59 59 233 233 233 233 255 255 201
 201 188 188 188 188 188 251 251 251 251 251 251 251 251 107 107 107 107 59 59
 59 59 59 59 233 233 233 233 201 201 201 201 188 188 188 188 127 251 251 251
 251 251 251 6 6 6 59 59 59 59 59 59 59 59 250 250 250 250 250 201
 201 201 201 311 188 188 127 127 127 127 251 198 198 198 6 6 59 59 59 59
 59 59 59 59 250 250 250 250 250 201 201 201 311 311 311 311 127 127 127 198
 198 198 198 198 198 59 59 59 59 59 59 59 59 59 250 250 250 250 201 201
 201 311 311 311 311 311 301 301 127 198 198 198 198 198 198 59 59 59 59 59
 59 59 59 7 7 7 7 7 201 201 201 311 311 311 311 311 301 301 301 198
 198 198 198 198 198 179 130 130 59 59 281 281 281 281 7 7 7 7 134 134
 134 134 134 277 277 277 277 301 301 345 345 198 198 198 179 179 179 130 59 59
 281 281 281 281 14 14 14 14 134 134 134 134 134 277 277 277 277 301 345 345
 345 345 345 345 179 179 10 10 10 10 281 281 281 281 14 14 14 14 14 134
 134 134 134 134 277 247 247 301 345 345 345 345 345 345 345 179 10 10 10 10
 10 281 281 281 14 14 14 14 346 346 134 134 134 83 83 83 83 83 345 345
 345 345 345 345 345 125 10 10 10 10 75 75 75 281 14 14 14 346 346 346
 346 134 134 299 83 83 154 154 154 345 345 345 345 345 125 125 125 10 10 10
 19 75 75 192 192 192 192 346 346 346 135 135 299 299 299 154 154 154 154 154
 336 336 336 336 125 125 125 19 19 19 19 19 192 192 192 192 192 185 185 185
 135 299 299 299 299 154 154 154 154 154 336 336 336 336 31 125 125 19 19 19
 19 19 192 192 192 192 185 185 185 185 118 118 299 299 299 154 154 154 154 154
 336 336 336 336 31 125 125 19 19 19 19 19 192 192 192 192 185 185 185 185
 118 118 118 299 299 55 55 154 154 336 336 336 336 336 336 125 125 19 19 19
 352 352 192 192 192 166 185 185 185 185 118 118 118 299 299 55 55 55 154 336
 336 336 336 336 336 293 293 352 352 352 352 352 352 166 166 166 166 166 185 185
 118 118 118 299 55 55 55 55 55 336 336 336 336 336 293 293 293 352 352 352
 352 352 166 166 166 166 166 166 166 189 189 315 315 315 315 315 45 45 173 173
 367 367 367 293 293 293 293 293 352 352 352 352 359 359 166 166 166 166 166 189
 189 315 315 315 315 315 315 173 173 173 367 367 367 367 293 293 293 293 352 352
 163 163 163 359 166 166 166 166 166 38 38 315 315 315 315 315 315 173 173 173
 367 367 367 367 293 293 293 293 352 352 163 163 163 163 166 166 166 166 38 38
 38 315 315 315 315 315 315 173 173 367 367 367 367 367 367 367 293 384 163 163
 163 163 163 163 163 166 166 166 38 38 38 315 315 315 315 315 315 173 173 367
 367 367 367 367 367 367 384 384 163 163 163 163 163 163 163 163 41 41 38 38
 38 165 165 165 315 315 315 378 378 378 367 367 367 367 367 194 194 194 163 163
 163 163 163 163 163 41 41 41 41 38 165 165 165 165 165 165 165 3 378 378
 378 367 367 367 194 194 194 194 163 163 8 163 163 163 163 41 41 41 41 258
 258 165 165 32 165 165 165 3 3 378 378 367 367 194 194 194 194 194 8 8
 8 8 236 236 255 255 41 41 180 258 258 258 165 165 165 165 165 3 251 251
 251 251 367 194 194 194 194 194 8 8 8 236 236 236 255 255 255 255 255 258
 258 258 165 165 165 165 251 251 251 251 251 251 251 194 194 194 194 8 8 8
 8 236 236 236 255 255 255 255 255 180 258 258 165 165 165 165 251 251 251 251
 251 251 251 124 124 194 8 8 8 8 8 236 236 236 255 255 255 255 255 180
 258 258 188 188 188 251 251 251 251 251 251 251 251 124 124 194 8 8 8 8
 59 236 236 236 233 233 233 255 255 180 201 188 188 188 188 188 251 251 251 251
 251 251 251 251 124 59 59 59 59 59 59 59 59 233 233 233 233 233 201 201
 201 201 188 188 188 127 127 251 251 251 251 251 251 251 152 59 59 59 59 59
 59 59 59 59 233 233 233 233 201 201 201 201 201 188 188 127 127 127 127 251
 251 251 251 152 152 152 59 59 59 59 59 59 59 59 250 250 250 250 201 201
 201 201 201 201 188 127 127 127 127 127 251 251 198 152 152 152 59 59 59 59
 59 59 59 59 250 250 250 250 201 201 201 201 201 311 311 127 127 127 127 127
 198 198 198 198 152 152 59 59 59 59 59 59 59 59 7 7 7 7 201 201
 201 201 201 311 311 311 301 301 127 127 198 198 198 198 198 179 59 59 59 59
 59 59 59 7 7 7 7 7 201 201 201 201 311 311 277 277 301 301 301 301
 198 198 198 198 179 179 179 179 59 59 281 281 281 281 7 7 7 7 134 134
 134 134 134 277 277 277 301 301 301 301 198 198 198 198 179 179 179 179 59 59
 281 281 281 281 7 7 7 7 134 134 134 134 134 277 277 277 277 301 301 301
 345 345 345 179 179 179 179 179 10 10 281 281 281 281 14 14 14 14 134 134
 134 134 134 277 247 247 247 301 301 301 345 57 57 345 179 179 179 10 10 10
 75 75 75 281 14 14 14 14 346 346 134 134 134 134 247 247 247 301 345 345
 345 57 345 345 125 125 125 10 10 10 75 75 75 75 14 14 14 346 346 346
 346 134 134 134 83 83 154 154 154 345 345 345 345 125 125 125 125 10 10 10
 75 75 75 192 192 192 192 346 346 346 346 135 299 299 299 154 154 154 154 154
 336 336 336 125 125 125 125 125 19 19 19 75 75 192 192 192 185 185 185 185
 185 299 299 299 299 154 154 154 154 154 336 336 336 125 125 125 125 125 19 19
 19 19 192 192 192 192 185 185 185 185 185 118 118 299 299 154 154 154 154 154
 336 336 336 336 125 125 125 125 19 19 19 19 192 192 192 192 185 185 185 185
 118 118 118 299 299 55 45 154 154 336 336 336 336 336 125 125 125 125 352 352
 352 352 192 192 166 166 185 185 185 185 185 118 118 118 299 45 45 45 18 336
 336 336 336 336 125 125 125 352 352 352 352 352 352 166 166 166 166 166 185 189
 189 189 118 118 45 45 45 45 45 18 336 336 336 336 293 293 293 352 352 352
 352 352 12 12 12 166 166 166 189 189 189 189 315 315 315 45 45 45 45 18
 18 18 18 367 293 293 293 352 352 352 352 163 166 166 166 166 166 166 166 189
 189 315 315 315 315 315 45 45 45 367 367 367 367 367 367 367 293 293 352 352
 163 163 163 166 166 166 166 166 166 38 38 315 315 315 315 315 315 173 173 367
 367 367 367 367 367 367 293 293 352 352 163 163 163 163 166 166 166 166 38 38
 38 315 315 315 315 315 315 173 173 367 367 367 367 367 367 367 367 384 163 163
 163 163 163 163 163 166 166 166 38 38 38 315 315 315 315 315 315 173 173 367
 367 367 367 367 367 367 367 388 388 163 163 163 163 163 163 163 41 41 38 38
 38 165 165 165 165 165 315 378 378 367 367 367 367 367 367 367 194 194 388 163
 163 163 163 163 163 41 41 41 41 38 165 165 165 165 165 165 165 3 378 367
 367 367 367 367 194 194 194 194 388 163 163 163 163 163 163 41 41 41 41 258
 258 165 165 165 165 165 165 3 3 304 304 304 304 194 194 194 194 194 8 8
 8 8 8 236 285 285 41 41 258 258 258 258 165 165 165 165 165 251 251 251
 304 304 304 194 194 194 194 8 8 8 8 8 236 236 285 285 285 285 255 258
 258 258 165 165 165 165 251 251 251 251 251 251 251 124 124 194 194 8 8 8
 8 8 236 236 285 285 285 255 255 180 258 258 165 165 165 165 251 251 251 251
 251 251 251 124 124 124 8 8 8 8 8 8 236 236 233 285 255 255 255 180
 258 258 165 165 165 251 251 251 251 251 251 251 251 124 124 124 8 8 8 8
 59 59 236 233 233 233 233 233 233 201 201 201 188 188 188 251 251 251 251 251
 251 251 251 124 124 124 59 59 59 59 59 59 59 233 233 233 233 233 201 201
 201 201 201 201 188 127 127 127 251 251 251 251 251 152 152 59 59 59 59 59
 59 59 59 59 233 233 233 233 201 201 201 201 201 201 188 127 127 127 127 127
 251 251 251 152 152 152 59 59 59 59 59 59 59 59 233 233 233 201 201 201
 201 201 201 201 127 127 127 127 127 127 127 251 152 152 152 152 59 59 59 59
 59 59 59 59 334 334 334 201 201 201 201 201 201 201 311 127 127 127 127 127
 127 198 198 152 152 152 59 59 59 59 59 59 59 59 334 334 334 334 201 201
 201 201 201 201 311 301 301 127 127 127 198 198 198 198 179 179 179 59 59 59
 59 112 59 7 7 334 334 334 201 201 201 201 201 201 277 301 301 301 301 301
 301 198 198 179 179 179 179 179 59 59 112 112 112 7 7 7 7 7 201 201
 201 201 201 277 277 277 301 301 301 301 301 57 198 179 179 179 179 179 140 140
 281 281 281 281 7 7 7 7 134 134 134 134 134 277 277 277 301 301 301 301
 57 57 57 179 179 179 179 179 140 140 75 75 281 281 14 14 14 14 346 134
 134 134 134 277 247 247 247 301 301 301 57 57 57 179 179 179 179 179 10 10
 75 75 75 75 14 14 14 346 346 346 346 134 134 134 247 247 164 164 164 301
 57 57 57 125 125 125 125 10 10 10 75 75 75 75 75 14 14 346 346 346
 346 134 134 134 247 247 164 164 164 164 57 57 57 125 125 125 125 125 10 10
 75 75 75 75 192 139 139 346 346 346 346 346 299 299 299 164 164 164 164 164
 18 57 125 125 125 125 125 125 125 19 19 75 75 192 139 139 185 185 185 185
 185 185 299 299 299 154 154 154 154 18 18 18 125 125 125 125 125 125 125 19
 19 19 192 192 139 139 185 185 185 185 185 118 118 299 299 154 154 154 154 18
 18 18 336 125 125 125 125 125 125 19 19 216 192 192 139 139 185 185 185 185
 185 118 118 118 299 45 45 45 18 18 18 18 18 125 125 125 125 125 352 352
 352 352 12 12 12 12 185 185 185 185 189 118 118 118 45 45 45 45 18 18
 18 18 18 18 125 125 125 125 352 352 352 352 12 12 12 12 166 166 189 189
 189 189 118 118 45 45 45 45 18 18 18 18 18 18 125 293 125 352 352 352
 352 352 12 12 12 12 166 166 189 189 189 189 315 315 312 45 45 45 18 18
 18 18 18 18 187 187 187 187 227 227 352 163 166 166 166 166 166 166 166 189
 189 315 315 315 315 315 45 45 45 367 367 367 367 367 187 187 187 187 227 227
 388 163 166 166 166 166 166 166 166 189 189 315 315 315 315 315 45 45 367 367
 367 367 367 367 367 187 187 187 388 388 388 388 388 166 166 166 166 166 166 38
 38 315 315 315 315 315 315 138 367 367 367 367 367 367 367 367 187 388 388 388
 388 388 163 163 166 166 166 166 38 38 38 315 315 315 315 315 315 138 367 367
 367 367 367 367 367 367 367 388 388 388 388 388 163 163 163 285 166 166 38 38
 38 165 165 165 165 165 315 378 367 367 367 367 367 367 367 367 194 388 388 388
 388 388 163 163 285 285 285 285 38 38 165 165 165 165 165 165 165 304 304 304
 304 304 367 367 367 194 194 388 388 388 388 388 163 285 285 285 285 285 285 258
 258 165 165 165 165 165 165 3 304 304 304 304 304 304 194 194 194 388 388 388
 8 8 8 285 285 285 285 285 285 258 258 165 165 165 165 165 165 251 251 304
 304 304 304 304 194 194 194 8 8 8 8 197 197 285 285 285 285 285 285 258
 111 111 165 165 165 165 251 251 251 251 304 304 304 124 124 124 194 8 8 8
 8 8 236 285 285 285 285 285 285 343 111 111 165 165 165 332 251 251 251 251
 251 251 251 124 124 124 8 8 8 8 72 8 236 285 285 285 285 285 343 343
 343 111 282 282 282 251 251 251 251 251 251 251 251 124 124 124 124 8 72 72
 72 72 264 344 344 344 344 344 343 343 201 201 201 282 282 127 251 251 251 251
 251 251 251 124 124 124 266 72 72 72 59 59 264 344 344 344 344 344 201 201
 201 201 201 282 282 127 127 127 127 251 251 251 251 152 152 152 59 59 59 59
 59 59 59 344 344 344 344 344 201 201 201 201 201 201 127 127 127 127 127 127
 251 251 152 152 152 152 152 59 59 59 59 59 59 59 344 344 344 201 201 201
 201 201 201 201 127 127 127 127 127 127 127 127 152 152 152 152 152 59 59 59
 59 59 59 59 334 334 334 20 20 201 201 201 201 201 127 127 127 127 127 127
 127 267 152 152 152 152 152 59 59 59 59 59 59 334 334 334 334 20 20 201
 201 201 201 201 301 301 301 127 127 127 127 267 267 179 179 179 179 179 59 59
 112 112 112 334 334 334 334 334 20 201 201 201 201 201 301 301 301 301 301 301
 301 57 179 179 179 179 179 179 59 59 112 112 112 39 39 334 334 334 20 351
 351 351 351 351 301 301 301 301 301 301 301 57 57 179 179 179 179 179 140 140
 140 140 112 39 39 228 228 228 172 172 351 351 351 351 301 301 301 301 301 301
 57 57 57 179 179 179 179 140 140 140 140 140 281 281 228 228 228 228 172 172
 172 351 351 351 247 301 301 301 301 301 57 57 57 57 179 179 179 140 140 140
 140 75 75 75 228 228 228 228 172 172 346 134 134 134 247 247 164 164 164 301
 57 57 57 57 125 125 125 140 140 140 140 75 75 75 228 228 228 228 346 346
 346 134 300 300 300 164 164 164 164 164 57 57 57 125 125 125 125 125 140 140
 75 75 75 75 139 139 139 185 346 346 346 346 300 300 300 300 164 164 164 164
 18 57 125 125 125 125 125 125 125 140 216 216 216 139 139 139 139 185 185 185
 185 185 300 300 300 317 164 164 164 18 18 18 125 125 125 125 125 125 125 19
 216 216 216 216 139 139 139 185 185 185 185 185 118 86 299 45 45 82 18 18
 18 18 18 125 125 125 125 125 125 19 216 216 216 139 139 139 139 185 185 185
 185 185 118 86 312 45 45 45 18 18 18 18 18 18 125 125 125 125 125 227
 227 216 12 12 12 12 185 185 185 189 189 189 118 312 312 45 45 45 18 18
 18 18 18 18 125 125 125 125 227 227 227 227 12 12 12 12 166 166 189 189
 189 189 189 312 312 45 45 45 18 18 18 18 18 18 125 125 125 227 227 227
 227 227 60 60 60 60 166 166 189 189 362 362 362 312 312 312 45 45 18 18
 18 18 18 18 187 187 187 187 227 227 227 227 166 166 166 166 166 166 189 362
 362 362 186 186 186 312 45 138 138 18 18 87 367 187 187 187 187 187 227 227
 388 388 388 166 166 166 166 166 166 362 362 362 186 186 186 186 138 138 138 138
 87 87 367 367 187 187 187 187 187 227 388 388 388 388 166 166 166 166 166 362
 162 186 186 186 186 186 138 138 138 367 87 87 367 367 367 187 187 187 388 388
 388 388 388 388 166 166 166 166 162 162 162 162 186 186 186 186 138 138 138 367
 367 367 367 367 367 129 129 388 388 388 388 388 388 163 163 285 95 95 162 162
 162 162 162 186 186 186 186 304 304 304 304 304 367 367 129 129 129 388 388 388
 388 388 388 388 285 285 285 285 162 162 162 162 162 165 165 165 165 304 304 304
 304 304 304 304 129 129 129 388 388 388 388 388 388 285 285 285 285 285 285 162
 162 162 165 165 165 165 332 332 304 304 304 304 304 304 304 129 194 388 388 388
 197 197 197 285 285 285 285 285 285 111 111 111 111 165 165 332 332 332 304 304
 304 304 304 304 304 194 194 388 388 388 197 197 197 285 285 285 285 285 285 111
 111 111 111 165 332 332 332 332 304 304 304 304 304 304 124 124 124 72 72 72
 72 197 197 285 285 285 285 285 343 343 111 111 111 111 332 332 332 332 251 251
 304 304 304 124 124 124 124 72 72 72 72 72 197 285 285 285 285 285 343 343
 343 111 282 282 282 332 332 332 251 251 251 251 251 124 124 124 266 72 72 72
 72 72 264 344 344 344 344 344 343 343 343 380 282 282 282 332 332 251 251 251
 251 251 251 124 124 266 266 72 72 72 72 72 264 264 344 344 344 344 343 380
 380 380 282 282 282 127 127 127 127 191 191 191 251 152 266 266 266 266 72 72
 59 59 264 264 344 344 344 344 344 380 380 380 380 282 282 127 127 127 127 191
 191 191 191 152 152 152 266 266 266 59 59 59 59 264 344 344 344 20 20 201
 380 380 380 380 127 127 127 127 127 191 191 191 191 152 152 152 152 266 59 59
 59 59 59 59 344 344 20 20 20 20 201 380 380 380 298 298 127 127 127 191
 191 267 267 152 152 152 152 59 59 59 59 59 59 334 334 334 334 20 20 20
 201 201 201 380 298 298 298 298 298 191 267 267 267 179 179 179 179 179 59 59
 112 112 112 334 334 334 334 20 20 20 351 351 351 351 298 298 298 301 301 301
 267 267 267 179 179 179 179 179 140 140 112 112 112 39 39 39 334 20 20 351
 351 351 351 351 301 301 301 301 301 301 301 57 267 179 179 179 179 140 140 140
 140 140 140 39 39 228 228 228 172 172 351 351 351 351 301 301 301 301 301 301
 57 57 57 179 179 179 179 140 140 140 140 140 140 228 228 228 228 228 172 172
 172 351 351 351 317 301 301 301 301 301 57 57 57 57 179 179 179 140 140 140
 140 140 140 228 228 228 228 228 172 172 172 351 351 317 317 317 164 164 164 301
 57 57 57 125 125 125 125 140 140 140 140 140 75 228 228 228 228 228 172 172
 172 300 300 300 317 317 164 164 164 164 57 57 57 125 125 125 125 125 140 140
 216 216 216 216 228 228 228 185 185 185 185 300 300 300 317 317 164 164 164 164
 18 18 125 125 125 125 125 125 125 140 216 216 216 216 139 139 139 185 185 185
 185 185 300 300 317 317 82 82 82 18 18 18 18 125 125 125 125 125 125 140
 216 216 216 216 139 139 139 185 185 185 185 185 86 86 317 317 82 82 18 18
 18 18 18 125 125 125 125 125 125 216 216 216 216 216 139 139 139 185 185 185
 185 185 86 86 312 312 312 82 18 18 18 18 18 18 125 125 125 125 227 227
 227 216 216 60 60 60 60 185 189 189 189 189 189 312 312 312 45 45 18 18
 18 18 18 18 18 125 125 227 227 227 227 227 227 60 60 60 60 60 189 189
 189 189 189 312 312 312 45 45 18 18 18 18 18 18 187 187 187 227 227 227
 227 227 227 60 60 60 60 60 362 362 362 362 362 312 312 312 312 312 18 18
 18 18 18 187 187 187 187 187 227 227 227 227 60 60 60 60 60 166 362 362
 362 362 186 186 186 312 312 138 138 138 87 87 87 187 187 187 187 187 227 227
 388 388 388 60 166 166 166 166 362 362 362 362 186 186 186 186 138 138 138 138
 87 87 87 187 187 187 187 187 227 227 388 388 388 388 166 166 166 166 362 162
 162 162 186 186 186 186 138 138 138 87 87 87 87 367 187 187 187 187 388 388
 388 388 388 388 166 95 95 166 162 162 162 162 186 186 186 186 138 138 138 87
 87 87 87 367 129 129 129 388 388 388 388 388 388 388 95 95 95 95 162 162
 162 162 162 186 186 186 138 371 371 304 304 304 304 304 129 129 129 388 388 388
 388 388 388 285 285 95 95 95 162 162 162 162 162 162 162 332 332 371 371 304
 304 304 304 304 129 129 129 388 388 388 388 388 388 285 285 285 95 285 285 162
 162 162 162 162 165 332 332 332 304 304 304 304 304 304 304 129 129 388 388 388
 197 197 197 285 285 285 285 285 285 111 111 111 111 111 332 332 332 332 332 304
 304 304 304 304 304 129 129 388 388 388 197 197 197 285 285 285 285 285 285 111
 111 111 111 111 332 332 332 332 332 304 304 304 304 304 304 124 124 72 72 72
 72 197 197 285 285 285 285 285 343 343 111 111 111 111 332 332 332 332 332 304
 304 304 304 304 124 124 72 72 72 72 72 72 197 285 285 285 285 285 343 343
 343 111 282 282 332 332 332 332 332 251 251 251 304 304 124 266 266 72 72 72
 72 72 264 264 344 344 344 344 343 343 343 380 282 282 282 332 332 332 251 251
 251 251 251 266 266 266 266 266 72 72 72 72 264 264 344 344 344 344 343 380
 380 380 282 282 282 127 127 191 191 191 191 191 191 266 266 266 266 266 266 72
 218 218 264 264 344 344 344 344 344 380 380 380 380 282 282 127 127 191 191 191
 191 191 191 266 266 266 266 266 266 266 218 218 218 218 344 344 344 20 20 380
 380 380 380 380 282 127 127 191 191 191 191 191 191 152 266 266 266 266 266 266
 218 218 218 218 260 260 20 20 20 20 380 380 380 380 298 298 298 298 191 191
 191 267 267 267 152 266 266 266 266 266 59 218 218 260 260 260 20 20 20 20
 380 380 380 380 298 298 298 298 298 191 267 267 267 179 179 179 179 266 266 59
 140 112 112 39 39 39 20 20 20 20 351 351 351 351 298 298 298 298 298 191
 267 267 267 179 262 262 262 262 140 140 140 121 121 39 39 39 228 20 20 351
 351 351 351 351 298 298 298 301 301 301 301 267 267 179 262 262 262 262 140 140
 140 140 140 39 39 228 228 228 172 172 351 351 351 351 351 301 301 301 301 301
 104 57 157 157 262 262 262 140 140 140 140 140 140 228 228 228 228 228 172 172
 172 351 351 351 317 301 301 301 301 104 104 57 157 157 157 157 262 140 140 140
 140 140 140 228 228 228 228 228 172 172 172 351 351 317 317 317 82 82 164 104
 104 57 157 157 15 15 125 140 140 140 140 140 140 228 228 228 228 228 172 172
 172 300 300 317 317 317 82 82 82 82 82 68 15 15 15 15 125 140 140 140
 216 216 216 216 329 329 329 329 172 357 357 300 300 300 317 317 82 82 82 82
 82 15 15 15 15 15 125 125 140 140 216 216 216 216 329 329 329 329 357 357
 357 357 300 317 317 317 82 82 82 82 18 18 15 15 15 15 125 125 99 99
 216 216 216 216 329 139 139 185 185 357 357 357 86 86 86 82 82 82 82 18
 18 18 18 15 15 125 125 125 99 216 216 216 216 216 60 60 60 60 185 185
 357 86 86 86 86 312 312 82 18 18 18 18 18 18 125 125 125 125 227 227
 227 216 216 60 60 60 60 60 189 189 189 189 86 86 312 312 312 312 18 18
 18 18 18 18 18 125 125 227 227 227 227 227 216 60 60 60 60 60 189 362
 362 362 86 312 312 312 312 312 18 18 18 18 18 18 187 187 187 227 227 227
 227 227 158 158 158 60 60 60 362 362 362 362 362 312 312 312 312 312 18 18
 18 18 52 52 187 187 187 187 227 227 227 227 158 158 158 158 60 60 362 362
 362 362 362 186 186 312 312 138 138 138 87 87 87 187 187 187 187 187 227 227
 388 388 388 158 158 166 166 166 362 362 362 362 186 186 186 186 138 138 138 138
 87 87 87 187 187 187 187 187 187 227 388 388 388 388 166 166 166 162 162 162
 162 162 186 186 186 186 138 138 138 87 87 87 87 87 187 187 187 187 388 388
 388 388 388 388 95 95 95 162 162 162 162 162 162 186 186 186 138 138 138 87
 87 87 87 87 129 129 129 388 388 388 388 388 388 388 95 95 95 95 162 162
 162 162 162 162 162 162 138 371 371 371 304 304 304 304 129 129 129 388 388 388
 388 388 388 388 95 95 95 95 162 162 162 162 162 162 162 162 332 371 371 371
 304 304 304 304 129 129 129 388 388 388 388 388 388 285 285 95 95 95 162 162
 162 162 162 162 162 332 332 332 371 371 304 304 304 304 304 129 129 388 388 388
 197 197 197 285 285 285 285 285 285 162 111 111 111 332 332 332 332 332 332 304
 304 304 304 304 304 304 129 388 388 388 197 197 197 285 285 285 285 285 285 111
 111 111 111 332 332 332 332 332 332 304 304 304 304 304 304 304 72 72 72 72
 72 197 197 285 285 285 285 285 343 343 111 111 111 332 332 332 332 332 332 304
 304 304 304 304 304 266 72 72 72 72 72 72 197 285 285 285 285 285 343 343
 343 111 282 332 332 332 332 332 332 91 91 91 304 304 266 266 266 266 72 72
 72 72 264 264 344 344 344 344 343 343 343 380 282 282 282 332 332 332 332 91
 91 91 91 266 266 266 266 266 266 72 72 218 264 264 344 344 344 344 343 380
 380 380 282 282 282 332 191 191 191 191 191 191 91 266 266 266 266 266 266 266
 218 218 218 344 344 344 344 344 344 380 380 380 380 282 282 127 191 191 191 191
 191 191 191 266 266 266 266 266 266 266 218 218 218 218 344 344 344 20 20 380
 380 380 380 380 282 298 191 191 191 191 191 191 191 266 266 266 266 266 266 266
 218 218 218 218 260 260 260 20 20 20 380 380 380 380 298 298 298 191 191 191
 191 191 267 267 266 266 266 266 266 266 218 218 218 260 260 260 260 20 20 20
 380 380 380 380 298 298 298 298 191 191 191 267 267 267 179 179 266 266 266 140
 140 218 121 260 260 260 20 20 20 20 351 351 351 351 298 298 298 298 298 191
 191 267 267 179 262 262 262 262 140 140 121 121 121 39 39 39 228 20 20 351
 351 351 351 351 298 298 298 298 298 104 104 267 157 157 262 262 262 262 140 140
 121 121 121 228 228 228 228 228 172 172 351 351 351 351 248 248 248 301 104 104
 104 157 157 157 157 262 262 140 140 140 140 121 121 228 228 228 228 228 172 172
 172 351 351 351 248 248 248 301 104 104 104 157 157 157 157 157 262 140 140 140
 140 140 121 228 228 228 228 228 172 172 172 351 351 317 317 248 82 82 104 104
 104 157 157 157 157 15 15 140 140 140 140 140 140 228 228 228 228 228 172 172
 172 300 300 317 317 317 82 82 82 82 68 68 15 15 15 15 15 140 140 140
 216 216 216 329 329 329 329 329 357 357 357 357 300 317 317 317 82 82 82 82
 68 68 68 15 15 15 15 99 99 99 216 216 216 329 329 329 329 329 357 357
 357 357 357 317 317 82 82 82 82 82 68 68 68 15 15 15 15 99 99 99
 216 216 216 216 329 329 329 329 357 357 357 357 86 86 86 85 82 82 82 18
 18 68 18 15 15 15 15 99 99 99 216 216 216 216 60 60 60 60 357 357
 357 86 86 86 86 85 85 82 82 18 18 18 18 18 15 15 15 99 99 99
 227 216 216 60 60 60 60 60 189 189 189 86 86 86 86 312 312 312 18 18
 18 18 18 52 52 52 52 227 227 227 227 227 216 158 60 60 60 60 189 362
 362 362 86 86 312 312 312 312 18 18 18 18 18 52 52 187 187 227 227 227
 227 227 158 158 158 158 60 205 362 362 362 362 362 312 312 312 312 312 18 18
 18 52 52 52 52 52 187 187 227 227 227 227 158 158 158 158 60 205 362 362
 362 362 362 186 186 312 312 138 138 18 18 52 52 52 52 187 187 187 227 227
 388 388 158 158 158 158 166 162 162 162 162 162 186 186 186 360 360 138 138 138
 87 87 87 187 187 187 187 187 184 388 388 388 388 355 355 158 162 162 162 162
 162 162 162 186 186 360 360 138 138 87 87 87 87 87 187 187 187 388 388 388
 388 388 388 355 355 95 95 162 162 162 162 162 162 162 162 360 360 144 371 371
 87 87 87 304 129 292 292 388 388 388 388 388 388 388 95 95 95 95 162 162
 162 162 162 162 162 360 144 144 371 371 371 304 304 304 129 129 292 388 388 388
 388 388 388 388 95 95 95 95 162 162 162 162 162 162 162 162 332 144 371 371
 371 304 304 304 129 129 129 388 388 388 388 388 388 203 285 95 95 95 162 162
 162 162 162 162 162 332 332 332 371 371 304 304 304 304 304 129 388 388 388 388
 388 197 203 203 285 285 285 285 285 162 162 162 162 162 332 332 332 332 332 304
 304 304 304 304 304 304 213 388 388 388 197 197 203 285 285 285 285 285 285 111
 111 111 111 332 332 332 332 332 332 304 304 304 304 304 304 304 266 266 105 105
 105 105 203 285 285 285 285 285 343 343 111 111 111 332 332 332 332 332 332 91
 91 304 304 304 306 266 266 266 105 105 105 105 105 285 285 285 285 49 49 343
 343 386 386 323 323 332 332 332 91 91 91 91 91 91 266 266 266 266 266 105
 105 105 218 264 344 344 344 344 343 343 343 386 386 386 323 323 323 323 91 91
 91 91 91 91 266 266 266 266 266 266 266 218 218 218 344 344 344 344 101 380
 380 380 386 386 386 323 323 191 191 191 91 91 91 174 266 266 266 266 266 266
 218 218 218 218 344 344 344 101 101 380 380 380 380 386 386 386 191 191 191 191
 191 191 174 174 266 266 266 266 266 266 218 218 218 218 344 260 101 101 101 380
 380 380 380 380 386 298 191 191 191 191 191 191 174 174 266 266 266 266 266 266
 218 218 218 218 260 260 260 20 20 20 380 380 380 380 298 298 298 191 191 191
 191 191 174 174 266 266 266 266 266 218 218 218 218 260 260 260 260 20 20 20
 380 380 380 380 298 298 298 298 191 191 191 191 267 174 266 266 266 266 266 218
 308 308 308 260 260 260 260 20 20 94 351 351 351 351 298 298 298 298 298 191
 191 191 267 157 262 262 262 262 140 140 121 121 121 121 260 260 260 20 94 94
 351 351 351 351 248 298 298 298 104 104 104 157 157 157 262 262 262 305 140 140
 121 121 121 121 228 228 228 228 94 94 351 351 351 351 248 248 248 104 104 104
 104 157 157 157 157 157 305 305 140 140 121 121 121 228 228 228 228 228 172 172
 172 351 351 248 248 248 248 104 104 104 104 157 157 157 157 157 305 305 140 140
 140 140 121 228 228 228 228 228 279 279 279 279 143 143 248 248 248 221 104 104
 104 157 157 157 157 15 15 140 140 140 140 140 140 329 329 329 329 228 279 279
 279 279 143 143 82 82 82 82 82 104 104 68 68 15 15 15 15 140 140 140
 140 216 216 329 329 329 329 329 357 357 357 357 143 143 82 82 82 82 82 82
 68 68 68 15 15 15 15 99 99 99 99 216 216 329 329 329 329 329 357 357
 357 357 116 116 116 82 82 82 82 82 68 68 68 15 15 15 15 99 99 99
 99 216 216 329 329 329 329 329 357 357 357 357 116 86 85 85 82 82 82 82
 68 68 68 15 15 15 99 99 99 99 99 216 216 216 329 329 329 375 375 375
 357 375 86 86 85 85 85 82 82 18 18 18 18 52 89 89 89 99 99 99
 227 216 216 60 60 60 60 205 375 375 375 86 86 86 86 85 85 82 18 18
 18 18 52 52 52 52 89 99 99 227 227 227 158 158 158 60 60 205 205 375
 362 362 86 86 312 312 312 312 18 18 18 18 52 52 52 52 89 227 227 227
 227 232 232 232 232 158 205 205 205 375 362 362 379 379 379 312 312 312 18 18
 373 52 52 52 52 52 187 187 227 227 184 232 232 232 232 158 205 205 205 362
 362 362 379 379 379 360 360 360 373 373 373 373 52 52 52 52 187 187 184 184
 184 184 232 232 232 158 205 205 162 162 162 162 162 379 360 360 360 360 373 373
 373 373 52 52 187 187 187 184 184 184 184 184 355 355 355 355 365 365 162 162
 162 162 162 162 360 360 360 360 373 373 373 373 87 87 187 292 292 292 184 184
 184 388 355 355 355 355 365 365 365 162 162 162 162 162 360 360 360 144 144 373
 373 296 296 296 292 292 292 292 184 184 388 388 388 355 355 355 365 365 365 162
 162 162 162 162 162 360 144 144 144 371 371 296 296 296 296 292 292 292 388 388
 388 388 388 355 291 291 291 365 365 162 162 162 162 162 162 360 144 144 144 371
 371 296 296 296 296 296 213 213 388 388 388 388 203 203 291 291 291 291 365 162
 162 162 162 162 162 332 332 332 371 371 304 304 296 296 296 296 213 213 213 388
 388 203 203 203 203 291 291 291 291 162 162 162 162 162 332 332 332 332 332 304
 304 304 304 304 296 213 213 213 213 388 105 203 203 203 203 291 291 291 49 322
 162 111 162 323 332 332 332 332 332 91 91 304 304 304 306 306 213 105 105 105