# vtk DataFile Version 2.0
Data set from IO Version 6.4.197.9a0dee2
ASCII

DATASET RECTILINEAR_GRID
DIMENSIONS 31 31 31
X_COORDINATES 31 float
-2.866667 2.866667 8.599999 14.333332 20.066666 25.799999 31.533331 37.266666 43.000000 48.733334 54.466667 60.200001 65.933327 71.666664 77.399994 83.133331 88.866661 94.599991 100.333328 106.066658 111.799995 
117.533325 123.266663 129.000000 134.733322 140.466660 146.199997 151.933319 157.666656 163.399994 169.133331 
Y_COORDINATES 31 float
-2.866667 2.866667 8.599999 14.333332 20.066666 25.799999 31.533331 37.266666 43.000000 48.733334 54.466667 60.200001 65.933327 71.666664 77.399994 83.133331 88.866661 94.599991 100.333328 106.066658 111.799995 
117.533325 123.266663 129.000000 134.733322 140.466660 146.199997 151.933319 157.666656 163.399994 169.133331 
Z_COORDINATES 31 float
-2.866667 2.866667 8.599999 14.333332 20.066666 25.799999 31.533331 37.266666 43.000000 48.733334 54.466667 60.200001 65.933327 71.666664 77.399994 83.133331 88.866661 94.599991 100.333328 106.066658 111.799995 
117.533325 123.266663 129.000000 134.733322 140.466660 146.199997 151.933319 157.666656 163.399994 169.133331 
CELL_DATA 27000
SCALARS FeatureIds int 1
LOOKUP_TABLE default
 36 36 153 252 43 43 43 43 43 230 230 230 230 70 70 70 70 70 70 70
 223 223 240 240 240 240 172 172 36 36 36 205 43 43 43 43 43 43 43 226
 230 230 230 70 70 70 70 70 223 223 223 223 240 240 240 240 172 172 172 172
 241 241 43 43 43 43 43 43 43 43 230 230 133 133 70 70 70 223 223 223
 223 223 223 240 240 240 240 172 172 172 241 241 43 43 43 43 43 43 43 2
 2 133 133 133 133 133 223 223 223 223 223 223 223 240 240 240 240 172 172 241
 241 241 43 43 43 43 43 43 43 2 2 133 133 133 133 133 223 223 223 223
 223 223 223 12 240 240 240 172 241 241 241 241 43 43 43 43 43 43 236 236
 2 133 133 133 133 133 133 223 223 223 223 223 12 12 12 240 172 172 241 241
 241 241 241 43 43 43 43 236 236 236 236 133 133 133 133 133 133 223 223 223
 223 223 12 12 12 240 283 283 241 241 241 241 241 99 43 349 349 236 236 236
 236 133 133 133 133 133 133 223 223 223 223 223 223 12 12 283 283 283 241 241
 217 217 99 99 99 349 349 349 236 236 236 133 133 133 133 133 133 223 223 223
 223 223 223 189 253 283 283 283 217 217 217 217 99 99 16 16 349 349 122 122
 122 1 1 1 1 1 1 34 34 160 160 223 189 189 189 217 217 217 217 217
 217 217 217 16 16 16 16 196 196 122 1 1 1 1 1 1 1 34 34 34
 5 5 189 189 189 217 217 217 217 217 217 217 217 16 16 16 16 196 196 122
 1 1 1 1 1 1 1 34 34 5 5 5 189 189 28 28 217 217 217 217
 217 217 217 16 16 16 16 196 196 196 1 1 1 1 1 1 1 34 5 5
 5 5 211 211 28 28 217 217 217 217 217 217 217 16 16 16 92 92 92 92
 1 1 1 155 1 1 1 34 5 5 5 211 211 211 28 28 28 217 217 217
 217 217 217 16 271 271 271 92 92 92 1 1 1 1 1 1 1 59 59 59
 59 211 211 211 211 28 28 217 217 217 299 299 299 299 271 271 271 92 92 92
 1 1 1 1 1 1 280 59 59 59 59 211 211 211 211 211 28 217 217 217
 299 299 299 299 271 271 271 271 92 92 339 339 339 204 204 204 280 59 59 59
 59 211 211 297 297 211 28 217 217 217 299 299 299 299 179 179 271 271 294 339
 339 339 339 204 204 204 204 59 59 110 110 110 297 297 297 297 17 17 17 17
 299 299 179 179 179 179 179 294 294 339 339 339 339 204 204 204 204 204 110 110
 110 110 110 297 297 297 17 17 17 17 179 179 179 179 179 179 179 294 294 294
 339 339 339 204 204 204 204 354 110 110 110 110 110 110 297 17 17 17 17 17
 332 179 179 179 179 179 179 294 294 294 294 366 204 204 204 204 354 354 354 110
 110 110 110 110 110 17 17 17 17 332 332 179 179 179 179 179 294 294 294 294
 294 366 366 204 204 82 354 354 354 110 68 68 68 68 142 142 17 17 332 332
 332 332 179 179 179 281 294 294 294 294 294 366 366 82 82 82 82 354 354 354
 68 68 68 142 142 142 142 332 332 332 332 332 281 281 281 281 281 294 294 294
 398 398 398 82 82 82 82 82 354 39 68 142 142 142 142 142 76 76 76 76
 76 76 281 281 281 281 281 281 294 398 398 398 398 398 82 82 82 82 39 39
 39 142 142 142 142 76 76 76 76 76 76 76 141 141 281 281 281 292 292 398
 398 398 398 398 320 320 320 82 39 39 39 39 142 142 142 76 76 76 76 76
 76 76 141 141 141 141 141 141 141 398 398 398 398 398 320 320 320 320 39 39
 39 39 142 142 136 136 76 76 76 76 36 36 141 141 141 141 141 141 141 398
 398 398 398 398 70 70 139 139 39 39 39 39 136 136 136 136 76 76 76 76
 36 36 153 153 141 141 141 141 141 230 230 230 230 70 70 70 70 139 139 39
 39 39 136 136 136 136 136 76 36 36 36 153 153 153 252 141 141 141 230 230
 230 230 230 70 70 70 70 70 70 70 39 386 386 136 136 136 136 76 36 36
 205 205 252 252 252 43 43 43 226 226 230 113 113 70 70 70 70 70 70 70
 223 223 240 240 240 240 240 240 36 36 205 205 205 43 43 43 43 43 226 226
 226 230 113 70 70 70 70 70 70 223 223 223 84 240 240 240 240 240 172 241
 241 241 43 43 43 43 43 43 43 226 2 2 133 70 70 70 70 223 223 223
 223 223 84 240 240 240 240 240 172 241 241 241 43 43 43 43 43 43 43 2
 2 2 133 133 133 133 223 223 223 223 223 223 240 240 240 240 240 240 241 241
 241 241 43 43 43 43 43 43 2 2 2 2 133 133 133 133 223 223 223 223
 223 223 223 240 240 240 240 240 241 241 241 241 241 43 43 43 43 331 236 2
 2 2 133 133 133 133 223 223 223 223 223 223 223 240 240 240 240 241 241 241
 241 241 241 43 43 43 331 236 236 236 236 133 133 133 133 133 133 223 223 223
 223 223 223 12 12 49 49 241 241 241 241 241 241 99 349 349 349 236 236 236
 236 133 133 133 133 133 133 223 223 223 223 223 223 253 49 49 49 241 241 241
 217 217 217 99 349 349 349 349 236 236 236 133 133 133 133 133 133 223 34 34
 223 223 253 253 253 49 49 217 217 217 217 217 217 16 16 349 349 349 236 236
 236 133 133 133 133 133 133 34 34 34 34 253 253 253 253 253 217 217 217 217
 217 217 217 16 16 16 196 196 196 122 1 1 1 1 1 1 1 34 34 34
 34 253 253 253 253 253 217 217 217 217 217 217 217 16 16 16 196 196 196 196
 1 1 1 1 1 1 1 34 34 34 5 5 253 253 28 28 217 217 217 217
 217 217 217 16 16 16 196 196 196 196 1 1 1 1 1 1 1 34 34 5
 5 5 28 28 28 28 28 217 217 217 217 217 217 16 277 277 277 277 92 92
 1 1 1 1 1 1 1 33 34 5 5 211 211 211 28 28 28 217 217 217
 217 217 217 277 277 277 277 277 92 92 1 1 1 1 1 1 33 33 59 59
 59 211 211 211 211 28 28 217 217 217 217 299 299 299 277 277 277 277 92 87
 87 339 1 280 280 280 280 280 59 59 59 211 211 211 211 211 28 217 217 217
 299 299 299 299 271 271 271 271 194 87 339 339 339 280 280 280 280 280 59 59
 59 211 211 211 211 211 28 225 225 225 299 299 179 179 179 179 179 179 294 339
 339 339 339 204 280 280 280 280 59 110 110 110 110 211 211 211 225 225 225 225
 64 179 179 179 179 179 231 231 294 339 339 339 339 339 204 280 280 280 110 110
 110 110 110 110 297 297 225 225 225 64 64 179 179 179 179 179 231 294 294 294
 294 339 339 204 204 204 280 280 110 110 110 110 110 110 110 35 17 225 17 332
 332 144 179 179 179 179 231 294 294 294 294 294 204 204 204 204 354 354 354 110
 110 110 110 110 35 35 35 17 332 332 332 144 144 179 179 179 81 294 294 294
 294 294 204 204 82 82 82 354 354 110 110 110 110 142 142 35 35 35 332 332
 332 144 144 179 179 81 81 81 294 294 294 294 366 82 82 82 82 82 354 354
 68 142 142 142 142 142 35 332 332 332 332 144 144 281 281 281 81 81 81 294
 398 398 398 82 82 82 82 82 82 39 142 142 142 142 142 142 76 76 76 76
 76 191 191 281 281 281 281 81 81 398 398 398 398 398 82 82 82 82 39 39
 39 142 142 142 142 142 76 76 76 76 76 191 191 281 281 281 281 81 81 398
 398 398 398 398 82 82 82 82 39 39 39 142 142 142 142 76 76 76 76 76
 76 191 141 141 281 281 281 141 398 398 398 398 398 398 320 320 320 320 39 39
 39 39 142 136 136 136 76 76 76 76 76 76 141 141 141 141 141 141 398 398
 398 398 398 398 70 70 70 70 381 381 381 381 136 136 136 136 136 76 76 76
 36 36 252 252 252 141 141 261 261 398 398 398 113 113 70 70 70 70 70 381
 381 381 136 136 136 136 136 76 76 76 36 153 252 252 252 141 141 261 261 113
 113 113 113 70 70 70 70 70 70 381 381 386 386 386 136 136 136 76 36 36
 205 205 205 205 205 205 43 226 226 226 226 113 113 113 70 70 70 70 70 70
 223 386 386 386 386 386 386 240 205 205 205 205 205 205 205 43 43 226 226 226
 226 113 113 113 70 70 70 70 70 223 223 84 84 84 240 240 240 240 241 241
 241 205 205 205 43 43 43 43 226 226 226 226 113 113 70 70 223 223 223 223
 223 223 84 84 240 240 240 240 241 241 241 241 205 43 43 43 43 43 2 2
 2 2 2 133 133 133 223 223 223 223 223 223 84 84 240 240 240 240 241 241
 241 241 241 43 43 43 331 331 2 2 2 2 2 133 133 133 223 223 223 223
 223 223 223 240 240 240 240 241 241 241 241 241 241 43 43 331 331 331 331 2
 2 2 133 133 133 133 223 223 223 223 223 223 223 240 240 240 240 241 241 241
 241 241 241 43 331 331 331 331 236 236 2 2 133 133 133 133 223 223 223 223
 223 223 223 240 49 49 49 241 241 241 241 241 241 241 331 331 331 331 236 236
 236 236 133 133 133 133 133 223 223 223 223 223 223 253 49 49 49 49 241 241
 217 217 217 99 349 349 349 349 236 236 236 133 133 133 133 133 133 223 34 223
 223 253 253 253 253 49 49 217 217 217 217 217 217 16 16 349 349 349 236 236
 236 133 133 133 133 133 133 34 34 34 34 253 253 253 253 253 217 217 217 217
 217 217 217 16 16 16 196 196 196 236 236 1 1 1 1 1 34 34 34 34
 34 253 253 253 253 253 217 217 217 217 217 217 217 16 16 277 196 196 196 196
 56 1 1 1 1 1 34 34 34 34 34 253 253 253 28 28 217 217 217 217
 217 217 217 277 277 277 277 196 196 196 41 41 41 41 41 1 1 34 34 5
 5 253 253 28 28 28 28 217 217 217 217 217 217 277 277 277 277 277 196 196
 41 41 41 41 41 41 33 33 33 33 5 211 211 28 28 28 28 28 217 217
 217 217 217 277 277 277 277 277 277 87 41 41 41 41 41 33 33 33 33 33
 211 211 211 211 28 28 28 28 217 217 217 217 299 277 277 277 277 277 277 87
 87 87 41 280 280 280 280 280 33 59 211 211 211 211 211 28 28 28 217 217
 64 64 299 179 277 277 277 277 194 87 87 87 280 280 280 280 280 280 280 14
 14 14 211 211 211 211 225 225 225 225 64 64 179 179 179 231 231 194 194 194
 87 339 339 280 280 280 280 280 280 14 14 14 14 14 14 225 225 225 225 64
 64 64 179 179 179 231 231 231 294 294 339 339 339 280 280 280 280 280 280 110
 110 110 14 14 14 14 225 225 225 64 64 179 179 179 179 231 231 231 294 294
 294 339 339 204 280 280 280 280 110 110 110 110 110 14 14 35 225 225 225 64
 332 144 144 179 179 231 231 231 294 294 294 294 204 204 350 350 350 350 350 110
 110 110 110 14 35 35 35 35 332 332 332 144 144 179 179 231 81 81 294 294
 294 294 204 204 350 350 350 350 376 376 110 110 110 142 35 35 35 35 332 332
 332 144 144 179 179 81 81 81 81 294 294 294 82 82 82 82 82 82 82 376
 110 142 142 142 142 35 35 35 332 332 191 191 191 281 281 81 81 81 81 81
 398 398 398 82 82 82 82 82 82 376 142 142 142 142 142 142 76 76 76 76
 191 191 191 281 281 281 81 81 81 69 398 398 398 398 82 82 82 82 82 39
 142 142 142 142 142 142 76 76 76 76 191 191 191 281 281 281 281 81 81 69
 398 398 398 398 82 82 82 82 381 39 381 142 142 142 142 76 76 76 76 76
 191 191 191 281 281 281 281 261 261 398 398 398 398 398 82 82 82 381 381 381
 381 381 142 142 136 136 76 76 76 76 76 191 191 141 141 141 261 261 261 398
 398 398 398 113 70 70 70 70 381 381 381 381 136 136 136 136 136 76 76 76
 205 205 205 252 252 141 261 261 261 261 113 113 113 113 70 70 70 70 381 381
 381 381 386 386 386 136 136 76 76 76 205 205 205 252 252 252 261 261 261 113
 113 113 113 113 70 70 70 70 381 381 381 386 386 386 386 386 386 76 76 76
 205 205 205 205 205 205 205 226 226 226 226 113 113 113 113 70 70 70 70 70
 386 386 386 386 386 386 386 386 205 205 205 205 205 205 205 205 43 226 226 226
 226 113 113 113 190 70 70 70 223 223 223 84 84 386 386 386 386 386 205 205
 195 205 205 205 205 43 43 226 226 226 226 113 113 113 190 70 70 223 223 223
 223 84 84 84 240 240 240 240 195 195 195 241 205 43 43 331 331 331 331 2
 2 2 2 133 133 133 223 223 223 223 223 223 84 84 240 240 240 240 195 195
 241 241 241 22 331 331 331 331 331 2 2 2 2 133 133 133 223 223 223 223
 223 223 263 263 240 240 240 241 241 241 241 241 22 22 331 331 331 331 331 2
 2 2 2 133 133 133 223 223 223 223 223 223 263 263 240 240 240 241 241 241
 241 241 241 22 331 331 331 331 331 236 2 2 133 133 133 133 223 223 223 223
 223 223 263 263 49 49 49 49 241 241 241 241 241 22 331 331 331 331 331 236
 236 236 133 133 133 133 133 348 223 223 223 223 253 253 49 49 49 49 241 241
 217 217 341 341 341 331 331 331 236 236 236 133 133 133 133 133 133 223 223 223
 223 253 253 253 253 49 49 49 217 217 217 217 217 341 341 349 349 349 236 236
 236 308 308 308 308 133 133 34 34 34 34 253 253 253 253 253 49 217 217 217
 217 217 217 315 315 315 315 315 56 56 56 41 308 308 308 308 34 34 34 34
 34 253 253 253 253 253 217 217 217 217 217 217 217 315 277 277 277 315 56 56
 56 41 41 41 41 41 34 34 34 34 362 253 253 253 28 28 28 217 217 217
 217 217 315 277 277 277 277 315 315 56 56 41 41 41 41 202 33 33 33 310
 362 362 253 28 28 28 28 217 217 217 353 217 315 277 277 277 277 277 315 56
 41 41 41 41 41 202 33 33 33 33 33 362 28 28 28 28 28 28 353 353
 353 353 315 277 277 277 277 277 315 87 41 41 41 41 41 33 33 33 33 33
 33 211 211 28 28 28 28 28 353 353 353 64 277 277 277 277 277 277 87 87
 87 87 41 41 280 280 280 33 33 33 14 211 211 211 28 28 28 225 353 353
 64 64 64 277 277 277 194 194 194 87 87 87 41 280 280 280 280 280 33 14
 14 14 14 14 211 211 225 225 225 353 64 64 179 179 231 231 194 194 194 194
 87 87 280 280 280 280 280 280 280 14 14 14 14 14 14 225 225 225 225 64
 64 64 179 179 231 231 231 194 194 194 222 222 222 280 280 280 280 280 280 14
 14 14 14 14 14 225 225 225 225 64 64 64 179 179 231 231 231 231 103 103
 222 222 222 280 280 350 350 350 376 14 14 14 14 14 14 35 225 225 225 64
 64 144 179 179 231 231 231 81 103 103 103 222 222 350 350 350 350 350 376 376
 14 14 14 14 35 35 35 35 321 64 214 144 144 179 231 231 81 81 81 103
 103 103 103 350 350 350 350 350 376 376 376 14 38 38 35 35 35 321 321 332
 214 214 144 179 231 81 81 81 81 81 103 103 103 350 350 350 350 376 376 376
 376 376 38 38 35 35 35 321 321 332 191 191 191 191 281 81 81 81 81 81
 398 398 398 82 82 82 82 82 376 376 376 376 142 142 142 35 35 76 76 76
 191 191 191 191 281 81 81 81 81 69 398 398 398 398 338 338 82 82 376 376
 376 142 142 142 142 35 76 76 76 191 191 191 191 191 281 281 81 81 69 69
 69 398 398 398 338 338 82 82 381 381 381 112 142 142 142 76 76 76 76 76
 191 191 191 191 281 281 261 261 261 69 398 398 398 398 398 338 82 381 381 381
 381 381 182 386 136 136 76 76 76 76 152 152 152 152 141 141 261 261 261 69
 398 398 113 113 113 70 70 381 381 381 381 381 386 386 386 386 76 76 76 76
 205 205 205 205 205 261 261 261 261 261 113 113 113 113 113 70 70 70 381 381
 381 381 386 386 386 386 386 76 76 76 205 205 205 205 205 205 261 261 261 113
 113 113 113 113 113 70 70 70 381 381 381 386 386 386 386 386 386 386 205 205
 205 205 205 205 205 205 205 364 364 364 364 113 113 113 190 190 70 70 70 259
 386 386 386 386 386 386 386 104 104 205 205 205 205 205 205 205 364 364 364 364
 364 364 190 190 190 190 190 70 233 233 223 386 386 386 386 386 386 104 195 195
 195 205 205 205 205 205 364 364 364 364 364 364 190 190 190 190 190 233 233 233
 223 84 84 84 37 37 37 195 195 195 195 195 205 53 53 331 331 331 148 148
 148 148 190 190 190 190 190 233 233 233 233 263 263 263 37 37 37 195 195 195
 195 195 22 22 22 331 331 331 148 148 148 148 2 133 133 133 223 233 233 233
 233 263 263 263 263 187 187 195 195 195 241 241 22 22 22 331 331 331 148 148
 148 148 2 133 133 133 223 223 233 233 223 263 263 263 187 187 187 195 195 195
 241 241 22 22 22 331 331 331 331 148 148 148 133 133 133 133 348 348 348 223
 223 263 263 263 263 49 49 49 241 241 241 241 22 22 22 331 331 331 331 148
 148 148 308 308 308 133 348 348 348 223 223 302 263 263 49 49 49 49 241 241
 217 341 341 341 341 331 331 331 331 236 236 308 308 308 308 308 348 348 348 223
 223 253 253 253 253 49 49 49 89 217 217 341 341 341 341 341 331 331 56 56
 56 308 308 308 308 308 348 348 34 310 253 253 253 253 253 253 49 217 217 217
 217 217 341 341 341 315 315 315 56 56 56 56 308 308 308 308 308 310 310 310
 362 362 253 253 253 253 217 217 217 217 353 217 315 315 315 315 315 315 56 56
 56 41 41 41 41 202 202 310 310 310 362 362 362 253 28 28 28 217 353 353
 353 353 315 315 315 315 315 315 56 56 56 41 41 41 41 202 202 202 310 310
 362 362 362 28 28 28 28 353 353 353 353 353 315 315 315 315 315 315 315 56
 41 41 41 41 41 202 202 33 33 33 362 362 362 28 28 28 28 353 353 353
 353 353 315 315 315 315 315 315 315 87 87 41 41 41 41 202 33 33 33 33
 33 362 28 28 28 28 28 353 353 353 353 353 134 134 277 315 315 315 87 87
 87 87 246 246 246 280 33 33 33 33 14 14 211 28 28 28 28 353 353 353
 64 64 134 134 134 194 194 194 194 87 87 87 246 246 280 280 280 389 389 14
 14 14 14 14 14 28 225 225 225 353 64 64 64 134 231 194 194 194 194 194
 87 87 246 280 280 280 280 389 389 14 14 14 14 14 14 225 225 225 225 64
 64 64 64 231 231 231 194 194 194 194 222 222 222 280 280 280 280 389 389 14
 14 14 14 14 14 14 225 199 199 64 64 64 64 231 231 231 231 194 194 103
 222 222 222 222 280 350 280 376 376 376 14 14 14 14 14 35 35 199 199 64
 214 214 214 214 231 231 231 103 103 103 103 222 222 350 350 350 350 376 376 376
 376 14 14 38 38 35 35 321 321 64 214 214 214 214 52 52 52 81 103 103
 103 103 222 350 350 350 350 376 376 376 376 376 38 38 38 35 321 321 321 214
 214 214 214 214 52 52 81 81 81 103 103 103 103 350 350 350 350 376 376 376
 376 376 38 38 38 35 321 321 321 321 214 214 214 214 52 81 81 81 81 103
 103 103 103 338 338 338 338 376 376 376 376 376 38 38 38 35 321 321 321 321
 191 191 191 191 281 81 81 81 81 81 398 398 398 338 338 338 338 338 376 112
 112 112 38 142 38 374 374 374 374 191 191 191 191 191 281 81 81 81 81 69
 69 398 398 398 338 338 338 30 381 112 112 112 182 182 182 374 374 374 374 191
 152 152 152 152 391 391 261 261 261 69 69 398 398 398 338 338 30 30 381 381
 381 182 182 182 182 182 374 374 374 152 152 152 152 152 391 391 261 261 261 69
 398 113 113 113 113 372 30 30 381 381 381 381 182 386 386 386 386 76 76 152
 152 152 205 205 205 391 261 261 95 95 113 113 113 113 113 372 238 30 381 381
 381 381 386 386 386 386 386 104 104 152 205 205 205 205 205 391 261 261 364 364
 113 113 113 113 113 372 372 70 381 381 381 386 386 386 386 386 104 104 104 205
 205 205 205 205 205 205 364 364 364 364 364 364 190 190 190 372 372 372 372 259
 259 386 386 386 386 386 104 104 104 205 205 205 205 205 205 205 364 364 364 364
 364 364 190 190 190 190 190 190 233 233 168 168 386 386 386 386 104 195 195 195
 195 205 205 205 53 53 364 364 364 364 364 364 190 190 190 190 190 233 233 233
 233 263 263 263 37 37 37 195 195 195 195 195 53 53 53 53 331 148 148 148
 148 148 190 190 190 190 233 233 233 233 233 263 263 263 37 37 37 195 195 195
 195 195 22 53 53 53 331 148 148 148 148 148 148 190 190 190 233 233 233 233
 233 263 263 263 187 187 187 195 195 195 195 22 22 22 22 331 331 331 148 148
 148 148 148 363 363 348 348 348 233 233 233 263 263 263 187 187 187 187 195 195
 89 22 22 22 22 331 331 331 148 148 148 148 148 308 308 348 348 348 348 302
 302 263 263 263 187 187 187 89 89 89 89 89 22 22 63 63 331 331 148 148
 148 148 308 308 308 308 348 348 348 302 302 302 263 263 263 49 49 89 89 89
 89 341 341 341 341 63 331 331 148 148 148 308 308 308 308 308 348 348 348 302
 302 302 302 272 272 49 49 89 89 89 341 341 341 341 341 341 341 56 56 56
 56 308 308 308 308 308 348 348 310 310 310 302 272 272 272 272 49 89 89 217
 217 341 341 341 341 315 315 56 56 56 56 56 308 308 308 308 308 310 310 310
 310 362 272 272 272 272 272 217 217 217 353 353 315 315 315 315 315 56 56 56
 56 56 41 41 308 202 202 310 310 310 362 362 362 272 272 28 28 353 353 353
 353 353 315 315 315 315 315 315 56 56 56 41 41 41 202 202 202 310 310 310
 310 362 362 28 28 28 28 353 353 353 353 353 315 315 315 315 315 315 315 56
 41 41 41 41 202 202 202 33 33 310 310 310 362 28 28 28 28 353 353 353
 353 353 134 315 315 315 315 315 315 87 87 377 41 246 202 202 33 33 33 33
 310 310 28 28 28 28 28 353 353 353 353 134 134 134 315 315 315 315 194 87
 87 377 246 246 246 202 33 33 33 33 14 14 14 227 28 28 28 353 353 353
 64 134 134 134 134 194 194 194 194 87 87 87 377 246 246 280 389 389 389 14
 14 14 14 227 227 227 192 192 192 353 64 64 134 134 134 194 194 194 194 194
 87 222 377 280 280 280 389 389 389 14 14 14 14 14 227 227 192 192 199 199
 64 64 64 305 305 194 194 194 194 194 222 222 222 280 280 280 389 389 389 14
 14 14 14 14 14 14 199 199 199 199 214 214 214 214 305 305 194 194 194 103
 222 222 222 222 280 350 280 376 376 376 14 14 14 14 38 38 321 199 199 199
 214 214 214 214 52 52 52 103 103 103 103 222 222 222 350 350 350 376 376 376
 376 14 38 38 38 38 321 321 321 214 214 214 214 214 52 52 52 103 103 103
 103 103 222 350 350 350 350 376 376 376 376 376 38 38 38 38 321 321 321 214
 214 214 214 214 52 52 52 81 103 103 103 103 222 350 350 350 350 376 376 376
 376 376 38 38 38 38 321 321 321 321 214 214 214 214 52 81 81 81 103 103
 103 103 375 338 338 338 338 376 376 376 112 112 38 38 38 38 321 321 321 321
 191 191 191 191 391 81 81 81 81 20 20 20 375 338 338 338 338 30 30 112
 112 112 38 182 38 374 374 374 374 374 152 152 152 152 391 391 391 81 20 20
 20 20 375 338 338 338 338 30 30 30 112 112 182 182 182 182 374 374 374 191
 152 152 152 152 391 391 391 95 95 20 20 20 20 338 338 338 30 30 30 30
 30 182 182 182 182 182 374 374 374 152 152 152 152 152 391 391 95 95 95 20
 20 120 120 238 238 238 30 30 30 30 30 182 182 182 182 182 182 374 374 152
 152 152 152 205 391 391 391 95 95 95 120 120 120 120 238 238 238 30 30 30
 30 182 182 386 386 386 104 104 104 152 205 205 205 205 205 391 391 391 364 364
 364 120 120 190 372 372 372 238 30 30 259 259 386 386 386 386 104 104 104 205
 205 205 205 205 205 391 391 364 364 364 364 190 190 190 190 190 238 238 238 259
 259 259 168 386 386 386 104 104 104 157 205 205 205 205 205 391 391 364 364 364
 364 190 190 190 190 190 190 238 233 168 168 168 168 168 386 386 104 104 195 195
 195 195 53 53 53 53 364 364 364 364 364 364 190 190 190 190 190 233 233 233
 168 168 168 168 37 37 37 195 195 195 195 195 53 53 53 53 53 148 148 148
 148 148 190 190 190 190 233 233 233 233 233 263 263 263 37 37 37 195 195 195
 195 53 53 53 53 53 331 148 148 148 148 148 363 363 363 363 233 233 233 233
 233 263 263 263 37 37 187 195 195 195 89 89 22 22 53 63 63 148 148 148
 148 148 363 363 363 363 233 233 233 233 302 263 263 263 263 187 187 187 89 89
 89 89 22 22 63 63 63 148 148 148 148 148 363 363 363 363 348 348 348 302
 302 302 263 263 263 187 187 89 89 89 89 89 89 63 63 63 63 63 148 148
 148 148 308 308 308 348 348 348 348 302 302 302 302 263 263 49 89 89 89 89
 89 89 341 341 63 63 63 63 71 71 71 308 308 308 308 308 348 348 348 302
 302 302 302 272 272 272 49 89 89 89 89 341 341 341 341 63 63 71 71 71
 71 308 308 308 308 308 348 310 310 310 310 302 272 272 272 272 272 89 89 89
 353 235 341 341 341 368 368 368 56 56 56 56 308 308 308 308 310 310 310 310
 310 362 272 272 272 272 272 353 89 89 353 235 315 315 315 315 315 56 56 56
 56 56 308 308 308 202 310 310 310 310 310 362 362 272 272 272 28 353 353 353
 353 353 315 315 315 315 315 315 56 56 56 41 41 41 202 202 202 310 310 310
 310 362 362 28 28 28 28 353 353 353 353 353 134 315 315 315 315 315 315 377
 377 377 41 41 202 202 202 33 310 310 310 310 362 28 28 28 28 353 353 353
 353 134 134 134 315 315 315 315 315 377 377 377 377 377 202 202 202 33 33 342
 310 310 227 28 28 28 200 353 353 353 353 134 134 134 134 315 315 315 315 377
 377 377 377 246 246 202 33 33 342 342 342 227 227 227 227 28 200 353 353 353
 134 134 134 134 134 134 194 194 194 377 377 377 377 246 246 280 389 389 342 342
 342 227 227 227 227 227 192 192 192 353 134 134 134 134 134 194 194 194 194 194
 377 377 377 377 280 24 389 389 389 14 14 14 227 227 227 227 192 192 192 192
 64 134 134 305 305 305 194 194 194 194 222 222 222 377 24 24 24 389 317 317
 14 14 227 227 227 227 192 199 199 199 214 214 214 305 305 305 305 194 194 103
 222 222 222 222 24 24 24 376 317 317 317 14 14 38 38 38 321 199 199 199
 214 214 214 305 305 305 305 103 103 103 103 222 222 222 24 24 24 376 376 376
 376 376 38 38 38 38 321 321 321 214 214 214 214 214 52 52 52 103 103 103
 103 103 222 222 350 24 24 376 376 376 376 376 38 38 38 38 321 321 321 214
 214 214 214 214 52 52 52 103 103 103 103 103 103 375 375 24 376 376 376 376
 376 376 38 38 38 38 321 321 321 321 214 214 214 214 52 81 81 103 103 103
 103 103 375 375 375 338 338 376 376 376 376 387 38 38 38 38 321 321 321 321
 152 214 152 391 391 391 391 20 20 20 20 20 375 375 375 338 338 30 30 30
 112 112 182 182 182 374 374 374 374 374 152 152 152 391 391 391 391 20 20 20
 20 20 375 375 375 338 30 30 30 30 30 182 182 182 182 182 374 374 374 374
 152 152 152 391 391 391 391 391 20 20 20 20 20 238 238 30 30 30 30 30
 30 182 182 182 182 182 374 374 374 152 152 152 152 391 391 391 391 95 95 20
 20 20 120 238 238 238 30 30 30 30 30 182 182 182 182 182 182 374 62 152
 152 152 152 391 391 391 391 391 95 20 20 120 120 120 238 238 238 30 30 30
 259 182 182 182 182 182 182 104 157 157 157 205 205 205 391 391 391 391 364 364
 364 120 120 190 190 238 238 238 30 259 259 259 182 182 182 182 104 104 104 157
 157 205 205 205 391 391 391 364 364 364 364 190 190 190 190 127 238 238 238 259
 259 259 168 168 182 386 104 130 157 157 205 205 205 205 205 391 391 364 364 364
 364 190 190 190 190 190 190 238 168 168 168 168 168 168 168 168 130 130 130 195
 195 195 165 165 165 165 275 364 364 364 364 364 190 190 190 190 190 233 233 168
 168 168 168 168 168 37 37 195 195 195 195 195 165 165 165 53 275 148 148 148
 148 148 190 190 190 190 190 233 233 233 168 168 263 263 37 37 37 195 195 195
 128 53 53 53 53 53 63 148 148 148 148 148 363 363 363 363 233 233 233 233
 233 263 263 263 263 37 187 195 195 128 128 89 53 53 53 63 63 148 148 148
 148 148 363 363 363 363 233 233 233 233 302 302 263 263 306 187 187 89 89 128
 89 89 89 63 63 63 63 63 148 148 148 148 363 363 363 363 348 348 348 302
 302 302 302 263 263 187 89 89 89 89 89 89 89 63 63 63 63 63 148 71
 148 148 363 308 363 363 348 348 348 302 302 302 302 302 263 89 89 89 89 89
 89 89 89 63 63 63 63 63 71 71 71 71 308 308 308 308 348 348 310 302
 302 302 302 302 272 272 89 89 89 89 89 235 235 341 368 368 368 71 71 71
 71 71 308 308 183 183 310 310 310 310 310 302 302 272 272 272 272 89 89 89
 235 235 235 368 368 368 368 368 71 71 71 71 308 183 183 183 310 310 310 310
 310 310 272 272 272 272 272 89 89 89 235 235 235 368 368 368 368 368 56 56
 56 56 377 183 183 183 310 310 310 310 310 310 145 272 272 272 272 353 353 353
 353 235 235 315 315 368 368 368 368 56 56 377 377 377 202 202 202 310 310 310
 310 310 145 272 28 28 28 353 353 353 353 134 134 134 315 315 315 315 315 377
 377 377 377 377 202 202 202 310 310 310 310 310 310 28 28 200 200 353 353 353
 353 134 134 134 134 315 315 315 315 377 377 377 377 377 377 202 202 129 342 342
 342 310 227 227 200 200 200 200 353 353 134 134 134 134 134 134 315 315 377 377
 377 377 377 377 377 377 129 129 342 342 342 227 227 227 227 200 200 200 353 353
 134 134 134 134 134 134 194 194 377 377 377 377 377 377 377 377 389 129 342 342
 342 227 227 227 227 227 192 192 192 353 134 134 134 134 134 305 194 194 194 377
 377 377 377 377 377 24 24 389 389 342 14 227 227 227 227 227 192 192 57 57
 134 134 134 305 305 305 305 194 194 390 390 390 390 390 24 24 24 389 317 317
 317 227 227 227 227 227 57 57 57 57 214 214 134 305 305 305 305 305 194 390
 390 390 390 390 24 24 24 24 317 317 317 227 227 227 227 57 57 57 57 57
 214 214 214 305 305 305 305 305 103 103 390 390 390 390 24 24 24 376 317 317
 317 376 38 38 38 57 57 57 57 57 214 214 214 214 305 305 305 103 103 103
 103 390 390 390 24 24 24 376 376 376 376 376 38 38 38 38 321 321 321 214
 214 214 214 214 52 52 18 18 103 103 103 103 375 375 375 24 72 376 376 376
 376 387 387 38 38 38 321 321 321 321 214 214 214 391 391 18 18 18 20 20
 20 20 375 375 375 375 72 72 72 387 387 387 387 387 38 38 67 67 321 62
 152 214 262 391 391 391 391 20 20 20 20 20 375 375 375 338 72 72 30 30
 387 387 387 182 182 182 374 374 374 62 152 152 152 391 391 391 391 20 20 20
 20 20 375 375 375 30 30 30 30 30 30 182 182 182 182 182 182 374 62 62
 62 152 152 391 391 391 391 391 20 20 20 20 375 375 375 30 30 30 30 30
 30 182 182 182 182 182 182 62 62 62 62 152 152 391 391 391 391 391 20 20
 20 20 120 238 238 238 30 30 30 30 30 182 182 182 182 182 182 62 62 62
 62 152 152 391 391 391 391 391 95 20 20 120 120 120 238 238 238 30 30 30
 259 259 182 182 182 182 182 104 157 157 157 205 205 391 391 391 391 391 391 364
 120 120 120 190 238 127 238 238 30 259 259 259 182 182 182 182 182 104 157 157
 157 205 205 205 391 391 391 131 131 131 131 97 97 97 97 127 91 91 91 168
 168 168 168 168 168 168 130 130 130 157 157 205 205 275 275 275 275 131 131 131
 131 97 97 97 97 190 190 91 168 168 168 168 168 168 168 130 130 130 130 130
 195 195 165 165 275 275 275 131 131 131 131 97 97 97 97 97 97 168 168 168
 168 168 168 168 168 168 130 130 130 195 195 165 165 165 275 275 275 275 11 11
 11 97 97 97 97 97 97 168 168 168 168 168 168 306 306 306 130 130 195 195
 128 128 165 165 397 275 275 11 11 11 11 11 363 363 363 363 363 351 351 351
 351 306 306 306 306 306 306 352 128 128 128 89 53 397 397 397 397 11 11 11
 11 11 363 363 363 363 363 351 351 351 351 302 306 306 306 306 306 128 128 128
 89 89 89 63 63 63 63 63 11 11 11 11 363 363 363 363 348 351 351 351
 302 302 302 306 306 306 306 89 89 89 89 89 89 63 63 63 63 63 11 11
 11 393 183 183 183 183 360 348 351 302 302 302 302 302 306 306 89 89 89 89
 89 89 89 63 63 63 63 63 71 71 71 183 183 183 183 183 360 360 310 302
 302 302 302 302 272 272 89 89 89 89 235 235 235 368 368 368 368 368 71 71
 71 183 183 183 183 183 360 360 310 310 310 302 302 302 272 272 272 89 89 89
 235 235 235 368 368 368 368 368 71 71 71 183 183 183 183 183 360 360 310 310
 310 310 145 145 145 272 272 300 300 235 235 235 235 368 368 368 368 368 368 56
 56 393 183 183 183 183 360 310 310 310 310 310 145 145 145 145 145 300 300 300
 235 235 235 368 368 368 368 368 368 56 377 377 377 183 183 202 310 310 310 310
 310 310 145 145 145 145 200 353 353 235 235 235 134 134 134 368 368 368 368 377
 377 377 377 377 377 202 310 310 310 310 310 310 145 145 145 200 200 353 353 353
 353 134 134 134 134 134 315 315 377 377 377 377 377 377 377 377 129 129 129 342
 310 310 227 227 200 200 200 200 353 353 134 134 134 134 134 134 315 315 377 377