# vtk DataFile Version 2.0
Data set from IO Version 6.4.197.9a0dee2
ASCII

DATASET RECTILINEAR_GRID
DIMENSIONS 31 31 31
X_COORDINATES 31 float
-2.866667 2.866667 8.599999 14.333332 20.066666 25.799999 31.533331 37.266666 43.000000 48.733334 54.466667 60.200001 65.933327 71.666664 77.399994 83.133331 88.866661 94.599991 100.333328 106.066658 111.799995 
117.533325 123.266663 129.000000 134.733322 140.466660 146.199997 151.933319 157.666656 163.399994 169.133331 
Y_COORDINATES 31 float
-2.866667 2.866667 8.599999 14.333332 20.066666 25.799999 31.533331 37.266666 43.000000 48.733334 54.466667 60.200001 65.933327 71.666664 77.399994 83.133331 88.866661 94.599991 100.333328 106.066658 111.799995 
117.533325 123.266663 129.000000 134.733322 140.466660 146.199997 151.933319 157.666656 163.399994 169.133331 
Z_COORDINATES 31 float
-2.866667 2.866667 8.599999 14.333332 20.066666 25.799999 31.533331 37.266666 43.000000 48.733334 54.466667 60.200001 65.933327 71.666664 77.399994 83.133331 88.866661 94.599991 100.333328 106.066658 111.799995 
117.533325 123.266663 129.000000 134.733322 140.466660 146.199997 151.933319 157.666656 163.399994 169.133331 
CELL_DATA 27000
SCALARS FeatureIds int 1
LOOKUP_TABLE default
 57 57 57 225 52 52 256 328 328 328 328 101 101 101 101 101 101 154 154 154
 154 154 141 141 62 62 62 57 57 57 57 57 225 225 225 52 52 328 328 328
 328 101 101 101 101 101 101 154 154 154 154 154 141 141 62 62 62 57 57 57
 57 225 225 225 225 225 52 52 126 126 101 101 101 101 101 101 101 154 154 154
 154 154 141 141 141 62 62 57 57 57 225 225 225 225 225 225 131 131 126 126
 101 101 101 101 101 101 101 68 68 68 154 154 141 141 141 62 62 57 190 190
 225 225 225 225 339 339 131 131 131 126 126 101 101 101 101 101 68 68 68 68
 68 215 215 312 22 22 22 22 190 190 225 225 225 225 339 131 131 131 131 131
 20 101 101 101 84 68 68 68 68 68 68 312 312 312 22 22 22 22 190 190
 225 225 225 225 339 131 131 131 20 20 20 20 84 84 84 84 68 68 68 51
 51 312 312 312 22 22 22 22 22 190 390 390 390 390 366 366 131 20 20 20
 20 20 84 84 84 84 84 51 51 51 275 275 312 312 312 22 22 22 22 279
 390 390 390 390 390 366 131 20 20 20 20 82 84 84 202 202 282 51 51 51
 275 192 192 192 372 372 372 279 279 279 279 390 390 390 390 37 37 20 20 20
 82 82 84 84 84 282 282 51 51 51 51 192 192 192 372 372 372 279 279 279
 279 390 390 390 37 37 37 37 222 222 82 82 63 63 63 282 282 51 51 51
 192 192 192 192 372 372 279 279 279 279 279 390 390 37 37 37 37 37 222 222
 222 222 63 63 63 63 63 51 270 270 192 192 192 192 372 279 279 279 279 279
 279 329 329 329 37 37 37 37 222 222 222 222 222 63 63 63 63 270 270 270
 192 192 192 192 192 279 279 279 279 279 329 329 329 329 37 37 37 37 222 222
 222 222 222 72 72 63 63 36 270 270 192 192 192 192 192 279 279 279 279 329
 329 329 329 329 329 37 37 37 222 222 222 222 222 72 72 63 36 36 36 36
 88 192 88 105 105 89 89 279 329 329 329 329 329 329 329 37 37 224 224 224
 222 222 222 72 72 63 36 361 361 361 361 88 88 105 105 105 89 329 329 329
 329 329 329 329 329 329 224 224 224 224 222 222 222 222 76 76 76 361 361 361
 361 361 88 380 380 380 325 329 329 329 329 329 329 329 142 142 142 224 224 224
 222 222 76 76 76 76 76 134 16 361 16 16 16 380 380 380 380 329 329 329
 329 329 329 142 142 142 142 142 184 184 184 184 76 76 76 76 76 134 16 16
 16 16 16 380 380 380 380 380 239 329 329 329 329 142 142 142 142 142 184 184
 184 184 76 76 76 76 134 134 134 16 16 274 274 380 380 380 380 380 380 9
 9 9 142 142 142 142 142 142 184 184 184 165 76 76 76 76 134 134 134 16
 16 274 274 380 380 380 380 380 9 9 9 9 317 142 142 142 142 142 7 7
 15 340 340 76 76 55 55 55 55 55 55 54 54 54 380 380 380 380 9 9
 9 317 317 317 317 142 152 152 15 15 15 15 15 15 55 55 55 55 55 55
 55 54 54 54 54 54 380 380 9 9 317 317 317 317 317 137 137 15 15 15
 15 15 15 15 55 55 55 55 55 55 55 54 54 54 54 54 54 54 317 317
 317 317 317 317 137 137 137 137 15 15 15 15 15 189 189 189 55 55 55 55
 54 54 54 54 54 54 54 54 317 317 317 317 317 317 137 137 137 137 15 15
 15 15 15 189 189 189 55 55 55 55 54 54 54 54 54 54 54 54 317 317
 317 317 317 317 137 137 137 137 15 15 15 15 15 130 130 130 130 55 55 154
 54 54 54 54 54 54 54 54 57 317 57 57 207 317 137 137 137 137 292 328
 328 328 101 130 130 130 130 154 154 154 154 54 54 54 54 62 62 62 57 57
 57 57 207 317 137 256 256 256 328 328 328 328 101 101 130 130 130 154 154 154
 154 154 54 62 62 62 62 62 57 57 57 57 57 317 256 256 256 256 328 328
 328 328 101 101 101 101 101 154 154 154 154 154 54 62 62 62 62 62 57 57
 57 57 57 52 52 52 256 256 256 256 101 101 101 101 101 101 101 154 154 154
 154 154 141 141 62 62 62 57 57 57 57 57 225 225 52 52 52 256 256 126
 101 101 101 101 101 101 101 154 154 154 154 154 141 141 62 62 62 57 57 57
 57 225 225 225 225 52 52 52 126 126 126 101 101 101 101 101 101 101 154 154
 154 154 141 141 141 62 62 57 57 57 225 225 225 225 225 52 52 126 126 126
 126 101 101 101 101 101 101 68 68 68 215 215 215 215 215 215 22 196 196 196
 225 225 225 225 225 225 131 131 126 126 126 126 101 101 101 101 101 68 68 68
 215 215 215 215 215 22 22 22 195 195 225 225 225 225 225 120 131 131 126 126
 126 126 101 84 84 84 68 68 68 68 51 215 215 312 22 22 22 22 195 195
 195 225 225 225 366 366 131 20 20 20 20 20 84 84 84 84 84 68 51 51
 51 51 312 312 22 22 22 22 195 195 390 390 390 366 366 366 366 20 20 20
 20 20 84 84 84 84 84 51 51 51 51 51 192 312 312 22 22 22 279 279
 390 390 390 390 366 366 366 20 20 20 20 84 84 84 84 84 84 51 51 51
 51 192 192 192 372 279 279 279 279 279 279 64 64 64 64 266 266 266 20 20
 305 84 84 84 84 84 84 51 51 51 51 192 192 192 372 279 279 279 279 279
 279 64 64 64 64 266 266 266 305 305 305 305 63 63 63 63 63 51 51 51
 192 192 192 192 372 279 279 279 279 279 279 64 64 64 64 266 266 266 305 305
 305 305 63 63 63 63 63 51 51 51 192 192 192 192 192 279 279 279 279 279
 329 329 64 64 64 37 37 266 305 305 305 305 63 63 63 63 36 36 36 192
 192 192 192 192 192 279 279 279 279 279 329 329 329 329 37 37 37 266 305 305
 222 222 222 63 63 63 36 36 36 192 192 192 192 192 105 89 89 89 279 329
 329 329 329 329 329 37 37 224 224 222 222 222 222 72 72 63 36 36 36 36
 88 88 88 105 105 89 89 89 329 329 329 329 329 329 329 329 224 224 224 224
 222 222 222 222 72 36 36 36 36 88 88 88 88 105 105 325 89 89 329 329
 329 329 329 329 329 329 224 224 224 224 224 34 34 34 76 76 76 16 16 16
 16 88 88 325 325 325 325 325 329 329 329 329 329 329 142 142 142 224 224 224
 34 34 34 76 76 76 76 16 16 16 16 16 274 325 325 325 325 325 329 329
 329 329 329 142 142 142 142 142 184 184 184 34 34 76 76 76 76 16 16 16
 16 274 274 274 325 325 325 325 239 239 239 239 329 142 142 142 142 142 184 184
 184 184 76 76 76 76 76 16 16 16 16 274 274 274 380 380 380 380 239 239
 239 239 142 142 142 142 142 142 184 184 184 184 76 76 76 76 134 134 16 16
 274 274 274 274 380 380 380 380 239 239 239 239 317 48 48 142 142 142 7 7
 7 340 340 76 76 55 55 55 55 55 274 274 274 54 54 380 380 380 239 239
 9 317 317 48 48 48 152 152 7 7 7 15 15 15 55 55 55 55 55 55
 55 54 54 54 54 54 54 54 9 9 317 317 317 317 48 48 152 152 152 15
 15 15 15 189 189 189 55 55 55 55 55 54 54 54 54 54 54 54 345 345
 317 317 317 317 137 137 137 152 152 15 15 15 15 189 189 189 189 55 55 55
 54 54 54 54 54 54 54 345 345 345 317 207 207 317 137 137 137 137 152 292
 15 15 15 189 189 189 189 55 55 55 54 54 54 54 54 54 54 345 345 345
 207 207 207 207 137 137 137 137 292 292 292 292 15 189 189 189 189 55 55 55
 54 54 54 54 54 54 54 54 299 299 299 207 207 207 137 137 137 292 292 292
 292 292 101 101 130 130 130 154 154 154 54 54 54 54 54 54 54 299 299 299
 57 57 207 207 256 256 256 256 292 292 292 101 101 101 101 101 101 154 154 154
 154 54 54 54 54 62 62 62 57 57 57 57 207 207 256 256 256 256 256 256
 101 101 101 101 101 101 101 154 154 154 154 154 54 62 62 62 62 57 57 57
 196 57 57 52 52 52 256 256 256 256 101 101 101 101 101 101 101 154 154 235
 235 235 235 141 62 62 62 57 57 57 196 196 225 225 52 52 52 256 256 126
 101 101 101 101 101 101 101 101 154 154 154 235 215 215 62 62 386 196 196 196
 196 225 225 225 52 52 52 126 126 126 126 101 101 101 101 101 101 101 154 154
 215 215 215 215 215 215 386 196 196 196 196 225 225 225 225 52 52 126 126 126
 126 126 101 101 101 24 24 24 68 215 215 215 215 215 215 215 196 196 196 196
 195 225 225 225 225 120 120 120 126 126 126 126 101 101 101 24 24 68 68 215
 215 215 215 215 215 215 271 195 195 195 195 225 225 225 225 120 120 120 126 126
 126 126 101 101 84 24 24 68 68 51 215 215 215 215 215 22 271 271 195 195
 195 195 225 225 366 366 120 120 20 20 20 126 84 84 84 84 84 51 51 51
 51 51 215 215 215 271 271 271 195 195 195 195 366 366 366 366 366 20 20 20
 20 20 84 84 84 84 84 51 51 51 51 51 192 312 312 22 271 271 195 195
 279 64 64 366 366 366 366 366 20 20 20 84 84 84 84 84 84 51 51 51
 51 51 192 192 192 279 279 279 279 279 279 64 64 64 64 266 266 266 20 305
 305 305 84 84 84 84 51 51 51 51 51 192 192 192 192 279 279 279 279 279
 279 64 64 64 64 266 266 266 266 305 305 305 63 63 63 84 51 51 51 51
 51 192 192 192 192 279 279 279 279 279 279 64 64 64 64 266 266 266 305 305
 305 305 305 63 63 63 36 36 51 51 192 192 192 192 192 279 279 279 279 279
 329 64 64 64 64 266 266 266 305 305 305 305 305 63 63 63 36 36 36 51
 192 192 192 192 89 89 89 89 279 279 329 329 64 64 64 266 266 266 305 305
 305 305 305 63 63 36 36 36 36 36 192 88 88 105 105 89 89 89 89 89
 329 329 329 329 329 266 266 266 305 305 305 305 305 327 327 36 36 36 36 36
 88 88 88 105 105 89 89 89 89 329 329 329 329 329 329 329 224 224 224 224
 34 34 34 34 327 36 36 36 36 88 88 88 88 105 105 325 89 89 329 329
 329 329 329 329 329 329 224 224 224 224 34 34 34 34 34 36 36 36 16 88
 88 88 88 105 325 325 325 325 329 329 329 329 329 329 142 142 142 224 224 224
 34 34 34 34 76 76 76 16 16 16 16 274 274 325 325 325 325 325 239 329
 239 329 329 142 142 142 142 142 184 184 34 34 34 34 320 320 76 16 16 16
 274 274 274 274 325 325 325 325 239 239 239 239 329 142 142 142 142 142 184 184
 184 34 34 320 320 320 76 16 16 16 274 274 274 274 325 325 325 239 239 239
 239 239 239 142 142 142 142 284 184 184 184 284 284 320 320 119 119 16 16 274
 274 274 274 274 325 380 380 239 239 239 239 239 48 48 48 48 48 152 284 7
 284 284 284 320 119 119 119 268 268 274 274 274 341 341 54 383 383 239 239 239
 239 262 48 48 48 48 152 152 152 284 284 284 284 320 119 119 55 55 55 132
 274 54 54 54 54 54 383 345 239 239 345 317 317 48 48 48 152 152 152 152
 284 284 284 189 189 189 55 55 55 132 132 54 54 54 54 54 54 345 345 345
 345 317 317 317 137 137 152 152 152 152 284 15 15 189 189 189 189 55 132 132
 132 54 54 54 54 54 54 345 345 345 345 207 207 207 137 137 137 152 152 292
 292 292 237 189 189 189 189 132 132 132 132 54 54 54 54 54 54 345 345 345
 299 207 207 207 137 137 137 292 292 292 292 292 237 189 189 189 189 132 132 132
 132 54 54 54 54 54 54 345 345 299 299 207 207 207 363 363 256 292 292 292
 292 292 292 237 237 237 132 132 132 132 132 54 54 54 54 54 54 299 299 299
 299 299 207 207 256 256 256 256 292 292 292 101 101 101 101 101 101 154 154 235
 235 235 54 54 54 54 62 299 299 299 299 299 207 207 256 256 256 256 256 256
 101 101 101 101 101 101 101 154 154 235 235 235 54 62 62 62 62 299 299 299
 196 196 52 52 52 52 256 256 256 256 101 101 101 101 101 101 101 162 235 235
 235 235 235 110 110 386 386 386 196 196 196 196 196 52 52 52 52 256 256 126
 101 101 101 101 101 101 101 162 162 235 235 235 215 215 215 386 386 386 196 196
 196 196 225 52 52 52 52 52 126 126 126 101 101 101 101 24 24 162 162 215
 215 215 215 215 215 215 386 196 196 196 196 196 225 225 225 52 52 126 126 126
 126 126 101 101 24 24 24 162 162 215 215 215 215 215 215 215 196 196 196 196
 195 195 225 225 225 120 120 120 126 126 126 111 111 111 24 24 24 162 162 102
 215 215 215 215 215 215 271 196 195 195 195 195 225 225 120 120 120 120 126 126
 126 111 111 111 24 24 24 102 102 102 102 215 215 215 215 271 271 271 195 195
 195 195 225 366 366 366 120 120 20 20 20 111 111 84 84 84 83 102 102 102
 102 215 215 215 215 271 271 271 195 195 195 195 366 366 366 366 366 366 20 20
 20 111 84 84 84 84 83 83 51 51 51 161 161 161 161 271 271 271 195 195
 279 64 64 366 366 366 366 366 20 20 20 84 84 84 84 84 83 83 51 51
 51 161 161 161 161 161 279 279 279 279 279 64 64 64 64 266 266 266 266 305
 305 305 143 143 143 83 83 83 51 51 51 161 161 161 161 279 279 279 243 243
 64 64 64 64 64 266 266 266 266 305 305 305 305 143 143 83 83 83 51 51
 51 161 161 161 161 279 279 279 243 243 64 64 64 64 64 266 266 266 266 305
 305 305 305 143 143 36 36 36 51 51 51 192 161 161 161 279 279 279 279 279
 64 64 64 64 64 266 266 266 266 305 305 305 305 63 63 36 36 36 36 36
 192 192 192 161 89 89 89 89 89 89 329 64 64 64 64 266 266 266 266 305
 305 305 305 327 327 36 36 36 36 36 88 88 88 105 105 89 89 89 89 89
 329 329 329 64 64 266 266 266 266 305 305 305 327 327 327 36 36 36 36 88
 88 88 88 105 105 89 89 89 89 89 329 329 329 329 221 221 221 224 224 224
 34 34 327 327 327 36 36 36 36 88 88 88 88 105 105 325 325 89 89 329
 329 329 329 329 221 221 221 224 224 34 34 34 34 327 327 327 373 373 373 88
 88 88 88 325 325 325 325 325 329 329 329 329 329 221 221 221 221 224 224 34
 34 34 34 34 327 320 373 373 16 16 88 88 88 325 325 325 325 325 239 239
 239 159 159 221 221 221 221 142 284 34 34 34 34 34 320 320 385 385 385 274
 274 274 274 274 325 325 325 325 239 239 239 159 159 142 142 142 142 284 284 284
 284 34 34 320 320 320 385 385 385 274 274 274 274 274 325 325 325 239 239 239
 239 239 159 48 48 48 284 284 284 284 284 284 284 320 320 119 119 268 268 274
 274 274 341 341 325 383 383 383 239 239 239 239 159 48 48 48 48 284 284 284
 284 284 284 320 119 119 119 268 268 268 274 341 341 341 341 383 383 383 383 239
 262 262 262 48 48 48 152 152 152 284 284 284 284 320 119 119 119 268 268 132
 132 341 54 54 54 383 383 383 383 383 262 262 262 48 48 48 152 152 152 284
 284 284 284 189 189 189 132 132 132 132 132 132 54 54 54 54 383 345 345 345
 345 262 262 48 48 152 152 152 152 152 284 284 284 189 189 189 132 132 132 132
 132 132 54 54 54 54 54 345 345 345 345 207 207 207 363 363 363 152 152 292
 292 292 237 237 189 189 132 132 132 132 132 132 54 54 54 54 54 345 345 345
 299 299 207 108 363 363 363 363 292 292 292 292 237 237 237 237 132 132 132 132
 132 132 54 54 54 54 342 345 345 299 299 299 207 108 363 363 363 256 292 292
 292 292 237 237 237 237 132 132 132 132 132 54 54 54 54 54 342 342 299 299
 299 299 108 108 363 363 256 256 292 292 292 292 237 237 237 237 237 132 132 235
 235 235 54 54 54 342 342 299 299 299 299 299 108 108 363 256 256 256 256 256
 292 101 101 101 101 101 101 154 235 235 235 235 110 110 110 342 342 299 299 299
 196 196 52 52 52 52 256 256 256 115 115 101 101 101 101 101 101 162 235 235
 235 235 110 110 110 386 386 386 196 196 196 196 196 52 52 52 52 231 256 126
 115 101 101 101 101 101 101 162 162 235 235 235 110 110 110 386 386 386 196 196
 196 196 125 125 52 52 231 231 126 126 111 111 111 101 101 24 162 162 162 162
 215 215 215 215 215 386 386 386 196 196 196 196 125 125 125 231 231 231 126 126
 111 111 111 111 24 24 162 162 162 162 215 215 215 215 215 386 386 196 196 196
 238 238 125 125 125 120 120 120 126 111 111 111 111 111 24 24 162 162 162 102
 215 215 215 215 215 240 271 196 238 238 238 238 238 125 120 120 120 120 126 111
 111 111 111 111 111 24 162 102 102 102 102 215 215 215 215 240 271 271 238 238
 238 238 261 366 366 366 366 120 318 318 318 111 111 111 143 83 102 102 102 102
 102 102 161 161 215 271 271 271 238 238 238 238 366 366 366 366 366 366 318 318
 318 318 143 143 143 83 83 83 102 102 102 161 161 161 161 271 271 271 271 238
 64 64 64 300 300 300 300 300 318 318 318 143 143 143 143 83 83 83 83 161
 161 161 161 161 161 208 208 208 208 238 64 64 64 64 300 300 300 266 74 74
 305 143 143 143 143 83 83 83 83 161 161 161 161 161 161 208 208 208 208 243
 64 64 64 64 266 266 266 266 74 74 305 305 143 143 143 83 83 83 83 161
 161 161 161 161 161 279 208 208 243 243 64 64 64 64 266 266 266 266 74 74
 305 305 305 143 143 83 83 83 83 161 161 161 161 161 161 89 89 89 243 243
 64 64 64 64 64 266 266 266 74 74 305 305 305 143 143 36 36 36 36 36
 161 161 161 161 89 89 89 89 89 89 64 64 64 64 64 266 266 266 266 305
 305 305 327 327 327 36 36 36 36 36 88 88 88 302 302 89 89 89 89 89
 329 329 64 64 64 266 266 266 266 305 305 327 327 327 327 327 36 36 36 36
 88 88 88 302 302 89 3 3 89 89 329 329 329 329 221 221 221 221 224 34
 34 327 327 327 327 327 373 373 373 88 88 88 88 302 302 325 325 3 3 329
 329 329 329 221 221 221 221 221 224 34 34 34 327 327 327 327 373 373 373 88
 88 88 88 302 325 325 325 29 29 329 159 159 159 221 221 221 221 221 224 34
 34 34 34 34 327 327 373 373 385 88 88 88 302 325 325 325 325 29 29 239
 159 159 159 221 221 221 221 221 284 284 34 34 34 34 320 320 385 385 385 385
 274 274 274 274 325 325 325 29 239 239 159 159 159 159 221 221 221 284 284 284
 284 284 34 320 320 320 385 385 385 385 274 274 274 274 325 325 383 383 239 239
 239 159 159 159 48 48 284 284 284 284 284 284 284 320 320 320 385 385 268 274
 274 274 341 274 274 383 383 383 383 239 262 262 159 48 48 48 284 284 284 284
 284 284 284 320 320 119 268 268 268 268 274 274 341 341 383 383 383 383 383 383
 262 262 262 48 48 48 6 152 284 284 284 284 284 320 119 119 268 268 268 132
 132 171 171 171 383 383 383 383 383 383 262 262 262 6 6 6 152 152 152 284
 284 284 284 284 60 119 132 132 132 132 132 132 132 54 54 383 383 383 383 262
 262 262 262 6 6 6 6 152 152 284 284 284 284 60 60 60 60 132 132 132
 132 132 132 54 54 54 383 345 345 345 345 262 262 108 363 363 363 152 152 292
 292 284 237 237 60 60 60 132 132 132 132 132 132 54 54 54 54 345 345 345
 299 299 108 108 363 363 363 363 292 292 292 292 237 237 237 60 60 132 132 132
 132 132 132 54 54 342 342 342 299 299 299 299 108 108 363 363 363 363 292 292
 292 292 237 237 237 237 132 132 132 132 132 132 132 54 54 342 342 342 299 299
 299 299 108 108 363 363 363 256 256 292 292 292 237 237 237 237 132 132 132 132
 235 235 110 110 110 342 342 342 299 299 299 299 108 108 363 363 256 256 256 115
 115 101 237 237 237 237 237 132 132 235 235 235 110 110 110 110 386 342 299 299
 196 196 196 52 52 231 231 256 115 115 115 115 101 101 101 101 67 162 162 235
 31 31 110 110 110 386 386 386 196 196 196 196 196 52 231 231 231 231 115 115
 115 101 101 101 101 101 162 162 162 31 31 31 110 110 110 386 386 386 196 196
 196 196 125 125 125 231 231 231 126 111 111 111 111 111 101 162 162 162 162 162
 31 31 215 215 215 386 386 386 196 196 196 196 125 125 125 231 231 231 111 111
 111 111 111 111 111 162 162 162 162 162 139 139 215 215 215 240 240 348 196 196
 238 238 125 125 125 261 120 231 111 111 111 111 111 111 111 162 162 162 162 102
 139 139 215 215 240 240 240 240 238 238 238 238 261 261 261 261 120 120 111 111
 111 111 111 111 111 145 162 102 102 102 102 139 139 215 240 240 240 271 238 238
 238 238 261 261 261 261 366 318 318 318 318 111 111 111 145 145 145 102 102 102
 102 102 161 161 240 240 271 271 238 238 238 238 261 261 300 300 300 318 318 318
 318 318 143 143 143 145 83 83 102 102 102 161 161 161 161 240 271 271 238 238
 238 238 300 300 300 300 300 318 318 318 318 143 143 143 143 83 83 83 83 161
 161 161 161 161 161 208 208 208 208 208 175 64 64 300 300 300 300 300 74 74
 74 143 143 143 143 83 83 83 83 161 161 161 161 161 161 208 208 208 208 208
 64 64 64 64 300 300 300 266 74 74 74 143 143 143 143 83 83 83 83 161
 161 161 161 161 161 208 208 208 208 208 64 64 64 64 266 266 266 266 74 74
 74 74 143 143 143 83 83 83 83 161 161 161 161 161 161 301 3 3 3 3
 64 64 64 64 266 266 266 266 74 74 74 74 226 226 226 226 36 36 36 308
 161 161 161 161 301 301 3 3 3 3 64 64 64 64 266 266 266 266 74 74
 74 226 327 327 226 226 36 36 36 308 308 88 302 302 301 301 3 3 3 3
 329 64 64 64 64 127 266 266 74 74 197 327 327 327 327 327 373 373 373 308
 88 88 302 302 302 301 3 3 3 3 329 329 329 221 221 221 221 221 221 197
 197 327 327 327 327 327 373 373 373 373 88 88 302 302 302 301 3 3 3 3
 329 329 329 221 221 221 221 221 221 197 197 327 327 327 327 327 373 373 373 373
 88 88 302 302 302 325 29 29 29 29 159 159 159 221 221 221 221 221 221 34
 34 34 327 327 327 327 385 385 385 385 88 88 302 302 325 325 29 29 29 29
 159 159 159 221 221 221 221 221 284 284 284 34 34 176 176 385 385 385 385 385
 274 274 376 376 392 392 29 29 29 159 159 159 159 159 221 221 221 284 284 284
 284 284 176 176 320 385 385 385 385 385 274 274 274 376 392 392 383 383 383 239
 159 159 159 159 48 48 284 284 284 284 284 284 284 320 320 385 385 385 385 385
 274 274 171 171 392 383 383 383 383 383 262 262 159 6 6 6 284 284 284 284
 284 284 284 320 320 385 385 268 268 268 171 171 171 171 171 383 383 383 383 383
 262 262 262 6 6 6 6 284 284 284 284 284 284 284 320 119 268 268 268 132
 171 171 171 171 171 383 383 383 383 383 262 262 262 6 6 6 6 6 284 284
 284 284 284 284 60 132 132 132 132 132 132 132 171 171 383 383 383 383 383 262
 262 262 262 6 6 6 6 6 284 284 284 284 284 60 60 60 60 132 132 132
 132 132 132 54 54 383 383 345 345 262 262 262 262 108 363 363 363 363 152 292
 284 284 60 60 60 60 60 132 132 132 132 132 132 54 54 342 342 342 345 345
 299 108 108 108 363 363 363 363 292 292 292 237 237 237 237 60 60 132 132 132
 132 132 132 54 54 342 342 342 342 299 299 108 108 108 363 363 363 363 292 292
 292 292 237 237 237 237 132 132 132 132 132 132 132 110 110 342 342 342 342 299
 299 108 108 108 363 363 363 363 115 115 115 115 237 237 237 237 132 132 132 132
 132 132 110 110 110 342 342 342 342 299 299 108 108 108 363 363 363 256 115 115
 115 115 237 237 237 67 67 132 132 235 235 110 110 110 110 110 386 342 342 299
 196 217 217 363 363 231 231 231 115 115 115 115 101 67 67 67 67 67 162 31
 31 31 31 110 110 386 386 386 196 196 196 196 288 231 231 231 231 231 115 115
 115 111 111 111 67 67 67 162 162 31 31 31 31 110 110 386 386 386 196 196
 196 288 288 125 231 231 231 231 231 111 111 111 111 111 111 162 162 162 162 31
 31 31 31 31 240 386 348 348 348 196 288 288 288 125 125 231 231 231 231 111
 111 111 111 111 111 162 162 162 162 162 139 139 139 139 240 240 348 348 348 196
 238 288 288 261 261 261 231 231 111 111 111 111 111 111 111 162 162 162 162 102
 139 139 139 139 240 240 240 348 238 238 238 238 261 261 261 261 261 261 111 111
 111 111 111 111 145 145 162 102 102 102 139 139 139 139 240 240 240 240 238 238
 238 238 261 261 261 261 261 318 318 318 318 111 111 145 145 145 145 102 102 102
 102 139 139 139 240 240 240 240 238 238 238 261 261 261 261 300 300 318 318 318
 318 318 143 145 145 145 83 83 102 102 102 161 161 161 240 240 240 240 238 238
 175 175 261 300 300 300 300 300 318 318 318 143 143 143 143 145 83 83 83 161
 161 161 161 161 333 333 208 208 208 238 175 175 175 300 300 300 300 300 74 74
 74 143 143 143 143 83 83 83 83 161 161 161 161 161 333 333 208 208 208 208
 175 175 64 300 300 300 300 266 74 74 74 143 143 143 143 83 83 83 83 161
 161 161 161 161 333 333 333 208 208 208 175 64 64 64 266 266 266 266 74 74
 74 74 226 226 226 83 83 83 83 161 161 161 161 161 301 301 301 3 3 3
 64 64 59 59 266 266 266 266 74 74 74 226 226 226 226 226 83 83 308 308
 308 161 161 301 301 301 301 3 3 3 149 64 59 59 59 266 266 266 74 74
 74 226 226 226 226 226 373 373 308 308 308 308 302 301 301 301 301 3 3 3
 149 59 59 59 127 127 127 127 74 197 197 327 327 327 226 226 373 373 373 308
 308 308 302 302 301 301 301 3 3 3 149 149 59 59 127 127 127 221 221 197
 197 197 327 327 327 327 373 373 373 373 88 88 302 302 302 301 301 3 3 149
 159 159 159 221 221 221 221 221 221 197 197 197 327 327 327 327 373 373 373 373
 88 88 302 302 302 325 29 29 29 149 159 159 159 221 221 221 221 221 221 197
 197 197 327 327 327 327 385 385 385 385 88 376 376 376 392 392 29 29 29 29
 159 159 159 221 221 221 221 221 284 284 284 284 176 176 176 385 385 385 385 385
 274 376 376 376 392 392 392 29 29 159 159 159 159 159 221 221 221 284 284 284
 284 284 176 176 176 385 385 385 385 385 171 171 376 376 392 392 392 392 383 159
 159 159 159 159 221 221 284 284 284 284 284 284 176 176 176 385 385 385 385 385
 171 171 171 171 392 392 392 383 383 383 262 159 159 6 6 6 284 284 284 284
 284 284 284 176 176 385 385 385 385 171 171 171 171 171 392 383 383 383 383 383
 262 262 262 6 6 6 6 284 284 284 284 284 284 176 168 168 168 132 132 171
 171 171 171 171 123 123 383 383 383 383 262 262 262 6 6 6 6 6 284 284
 284 284 284 284 168 168 168 132 132 132 132 171 171 171 123 123 123 383 383 262
 262 262 262 6 6 6 6 6 284 284 284 379 379 60 60 60 60 132 132 132
 132 132 132 132 123 123 123 383 345 262 262 262 262 108 363 363 363 363 284 379
 379 379 379 60 60 60 60 132 132 132 132 132 132 132 123 123 342 342 342 345
 299 108 108 108 363 363 363 363 363 379 379 379 237 237 60 60 60 132 132 132
 132 132 132 132 342 342 342 342 342 342 299 108 108 108 363 363 363 363 292 292
 379 379 237 237 237 237 132 132 132 132 132 132 132 110 342 342 342 342 342 342
 299 108 108 108 363 363 363 363 115 115 115 115 237 237 237 67 67 132 132 132
 132 132 110 110 110 342 342 342 342 342 217 108 108 108 363 363 363 363 115 115
 115 115 237 237 67 67 67 67 132 132 132 31 110 110 110 110 342 342 342 342
 217 217 217 363 363 231 231 231 135 135 135 135 67 67 67 67 67 67 319 31
 31 31 31 31 110 386 386 386 196 196 196 217 288 231 231 231 231 231 135 135
 111 111 111 111 67 67 67 67 319 31 31 31 31 31 31 386 348 348 348 348
 288 288 288 125 231 231 231 231 135 111 111 111 111 111 111 162 162 162 319 319
 31 31 31 31 240 348 348 348 348 348 288 288 288 261 261 231 231 231 111 111
 111 111 111 111 111 162 162 162 319 319 319 139 139 139 240 240 348 348 348 348
 288 288 288 261 261 261 261 231 111 111 111 111 111 111 111 145 162 162 319 319
 139 139 139 139 240 240 240 348 348 238 238 261 261 261 261 261 261 261 111 111
 111 111 111 145 145 145 145 102 102 102 139 139 139 139 240 240 240 240 238 238
 238 261 261 261 261 261 261 261 318 318 318 111 145 145 145 145 145 102 102 102
 139 139 139 139 240 240 240 240 238 238 175 261 261 261 261 261 261 318 318 318
 318 145 145 145 145 145 145 83 102 102 161 161 161 333 240 240 333 333 333 238
 175 175 175 261 300 300 300 300 318 318 335 335 335 145 145 145 83 83 83 161
 161 161 161 333 333 333 333 333 333 175 175 175 175 300 300 300 300 300 74 74
 335 335 335 143 143 289 83 83 83 161 161 161 161 333 333 333 333 333 333 175
 175 175 175 349 349 349 349 349 74 74 335 335 335 143 289 289 83 83 83 161
 161 161 161 333 333 333 333 333 333 175 175 175 175 349 349 349 349 349 74 74
 74 226 226 226 289 289 289 83 83 161 161 161 161 333 301 301 333 333 333 175
 175 175 59 59 59 349 349 349 74 74 74 226 226 226 226 289 289 308 308 308
 308 308 241 301 301 301 301 301 3 3 149 149 59 59 59 349 349 349 74 74
 226 226 226 226 226 226 289 308 308 308 308 308 241 301 301 301 301 301 3 149
 149 149 59 59 59 127 127 127 197 197 197 226 226 226 226 226 373 373 308 308
 308 308 241 301 301 301 301 301 149 149 149 149 59 59 127 127 127 221 197 197
 197 197 327 327 226 226 373 373 373 308 308 308 302 302 301 301 301 13 149 149
 149 149 159 127 127 127 127 221 221 197 197 197 327 327 327 327 373 373 373 308
 308 93 93 93 93 13 13 13 149 149 149 159 159 221 221 221 221 221 221 197
 197 197 176 176 176 176 385 169 385 385 376 376 376 93 392 392 13 13 13 149
 159 159 159 221 221 221 221 221 284 284 284 176 176 176 176 176 385 385 385 385
 376 376 376 376 392 392 392 13 13 13 159 159 159 159 221 221 221 284 284 284
 284 176 176 176 176 176 385 385 385 385 171 171 376 376 392 392 392 392 392 159
 159 159 159 159 221 221 284 284 284 284 284 284 176 176 176 176 385 385 385 171
 171 171 171 392 392 392 392 392 383 383 262 159 159 212 6 6 284 284 284 284
 284 284 176 176 176 176 385 385 385 171 171 171 171 171 392 392 392 383 383 383
 262 262 262 6 6 6 284 284 284 284 284 284 284 176 168 168 168 168 132 171
 171 171 171 171 123 123 123 383 383 383 262 262 262 6 6 6 6 284 284 284
 284 379 379 379 168 168 168 132 132 132 171 171 171 331 123 123 123 383 383 383
 262 262 262 6 6 6 6 6 284 379 379 379 379 379 168 168 168 132 128 132
 132 132 132 331 123 123 123 383 368 368 368 262 262 108 363 363 363 363 379 379
 379 379 379 379 379 60 132 132 132 132 132 132 132 132 123 69 69 69 368 368
 368 108 108 108 363 363 363 363 379 379 379 379 379 379 379 60 132 132 132 132
 132 132 132 132 330 69 69 69 69 69 217 108 108 108 363 363 363 363 363 379
 379 379 379 379 237 67 132 132 132 132 132 132 132 330 330 69 69 69 69 69
 217 217 217 363 363 363 363 363 115 115 379 379 379 67 67 67 67 132 132 132
 132 132 110 110 330 69 69 69 69 69 217 217 217 363 363 363 363 363 115 115
 115 379 67 67 67 67 67 67 67 132 31 31 31 110 110 69 69 69 69 217
 217 217 217 217 38 38 231 135 135 135 135 135 371 67 67 67 67 67 319 31
 31 31 31 31 316 316 316 69 69 217 217 217 217 217 38 231 231 135 135 135
 135 135 371 371 67 67 67 319 319 319 31 31 31 31 31 316 348 348 348 348
 288 288 288 288 160 231 231 135 135 135 135 111 111 371 371 67 319 319 319 319
 319 31 31 31 240 348 348 348 348 348 288 288 288 160 160 160 231 135 135 111
 111 111 111 242 242 242 319 319 319 319 319 319 139 240 240 240 348 348 348 348
 288 288 160 160 160 261 261 261 277 277 277 277 242 242 242 242 319 319 319 319
 319 139 139 240 240 240 240 348 348 238 238 160 160 160 261 261 261 261 277 277
 277 277 242 242 242 242 242 319 319 319 139 139 139 139 240 240 240 240 238 238
 160 160 160 261 261 122 122 122 277 277 277 277 242 145 145 145 145 87 87 139
 139 139 139 139 240 240 240 240 238 238 175 160 160 261 122 122 122 122 277 277
 277 277 335 145 145 145 145 87 87 139 139 139 139 333 333 333 333 333 333 175
 175 175 175 261 122 122 122 122 277 277 277 335 335 335 145 145 289 83 87 161
 161 161 333 333 333 333 333 333 333 175 175 175 175 349 349 349 349 349 183 183
 335 335 335 335 289 289 289 78 78 78 161 161 333 333 333 333 333 333 333 175
 175 175 175 349 349 349 349 349 349 183 335 335 335 335 289 289 289 289 78 78
 161 161 333 333 333 333 333 333 333 175 175 175 175 349 349 349 349 349 349 335
 335 335 335 289 289 289 289 289 78 78 161 161 241 333 333 333 333 333 333 175
 175 175 59 59 349 349 349 349 349 335 335 226 226 226 289 289 289 289 308 308
 308 241 241 241 301 301 301 301 3 149 149 149 59 59 59 349 349 349 349 35