# vtk DataFile Version 2.0
Data set from ImportExport Version 6.5.141.ec284b7a5
ASCII

DATASET RECTILINEAR_GRID
DIMENSIONS 26 26 26
X_COORDINATES 26 float
-3.000000 3.000000 9.000000 15.000000 21.000000 27.000000 33.000000 39.000000 45.000000 51.000000 57.000000 63.000000 69.000000 75.000000 81.000000 87.000000 93.000000 99.000000 105.000000 111.000000 117.000000 
123.000000 129.000000 135.000000 141.000000 147.000000 
Y_COORDINATES 26 float
-3.000000 3.000000 9.000000 15.000000 21.000000 27.000000 33.000000 39.000000 45.000000 51.000000 57.000000 63.000000 69.000000 75.000000 81.000000 87.000000 93.000000 99.000000 105.000000 111.000000 117.000000 
123.000000 129.000000 135.000000 141.000000 147.000000 
Z_COORDINATES 26 float
-3.000000 3.000000 9.000000 15.000000 21.000000 27.000000 33.000000 39.000000 45.000000 51.000000 57.000000 63.000000 69.000000 75.000000 81.000000 87.000000 93.000000 99.000000 105.000000 111.000000 117.000000 
123.000000 129.000000 135.000000 141.000000 147.000000 
CELL_DATA 15625
SCALARS FeatureIds int 1
LOOKUP_TABLE default
 47 47 47 47 47 47 101 101 101 61 61 61 61 61 61 61 61 61 61 61
 61 6 6 6 6 47 47 47 47 47 101 101 101 101 61 61 61 61 61 61
 61 61 61 61 61 6 6 6 6 6 6 47 47 47 94 101 101 101 101 101
 61 61 61 61 61 61 61 61 61 61 6 6 6 6 6 6 6 94 94 94
 101 101 101 101 101 61 61 61 61 61 61 61 61 61 61 6 6 6 6 6
 6 94 94 94 94 94 101 101 101 101 13 61 61 61 61 61 61 61 61 6
 6 6 6 6 6 6 94 94 94 94 94 94 7 13 13 13 22 22 22 22
 61 61 61 61 6 6 6 6 6 6 6 94 94 94 94 94 94 13 13 13
 13 22 22 22 22 22 61 61 6 6 6 6 6 6 6 94 94 94 94 94
 94 94 13 13 13 13 22 22 22 22 22 22 59 69 69 69 6 6 6 6
 94 94 94 94 94 94 94 13 13 13 13 13 22 22 22 22 22 59 59 69
 69 69 6 6 6 94 94 94 94 94 94 94 13 13 13 13 13 22 22 22
 22 59 59 59 11 69 69 6 6 6 94 94 94 94 94 3 3 3 3 13
 13 13 22 22 22 22 59 59 11 11 11 11 27 27 27 41 41 3 3 3
 3 3 3 3 3 13 13 22 22 9 9 59 59 11 11 11 11 27 27 27
 41 41 3 3 3 3 3 3 3 3 3 3 9 9 9 9 9 11 11 11
 11 11 27 27 27 41 41 41 3 3 3 3 3 3 3 3 3 9 9 9
 9 9 11 11 11 11 11 27 27 27 70 41 3 3 3 3 3 3 3 3
 3 87 87 9 9 9 9 11 11 11 11 11 27 27 70 70 70 3 3 3
 3 3 3 3 3 3 87 87 87 87 87 9 50 50 50 50 50 50 70 70
 70 70 70 3 3 3 3 3 3 3 87 87 87 87 87 87 50 50 50 50
 50 50 50 50 70 70 70 70 3 3 3 3 3 3 66 87 87 87 87 87
 87 17 17 17 17 50 50 50 50 70 70 29 29 29 3 3 3 3 3 87
 87 87 87 87 87 87 17 17 17 17 17 17 50 50 70 29 29 29 29 29
 102 102 102 102 87 87 87 87 87 87 87 17 17 17 17 17 17 17 17 17
 29 29 29 29 102 102 102 102 102 102 87 87 87 87 87 87 50 17 17 17
 17 17 17 17 17 29 29 29 102 102 102 102 102 102 102 102 87 87 87 87
 87 50 50 50 17 17 17 50 50 50 47 47 47 102 102 102 102 102 102 102
 102 102 87 87 87 61 50 50 50 50 50 50 50 50 50 47 47 47 47 102
 102 102 102 102 102 61 61 61 61 61 61 61 50 50 50 50 50 50 50 50
 47 47 47 47 102 102 102 102 102 102 61 61 61 61 61 61 61 61 61 50
 50 50 50 50 43 47 47 47 89 89 89 101 7 7 61 61 61 61 61 61
 61 61 61 61 61 6 6 6 6 6 6 6 47 89 89 89 101 7 7 61
 61 61 61 61 61 61 61 61 61 61 6 6 6 6 6 6 6 47 94 94
 101 7 7 7 7 61 61 61 61 61 61 61 61 61 61 6 6 6 6 6
 6 6 94 94 94 7 7 7 7 7 7 61 61 61 61 61 61 61 61 6
 6 6 6 6 6 6 6 94 94 94 94 7 7 7 7 7 61 61 61 61
 61 61 61 61 6 6 6 6 6 6 6 94 94 94 94 94 7 7 13 13
 13 22 22 22 22 61 61 61 61 6 6 6 6 6 6 6 94 94 94 94
 94 7 13 13 13 13 22 22 22 22 22 61 69 69 69 69 6 6 6 6
 6 94 94 94 94 94 94 13 13 13 13 22 22 22 22 22 22 59 69 69
 69 69 6 6 6 6 94 94 94 94 94 94 13 13 13 13 13 22 22 22
 22 59 59 59 69 69 69 69 6 6 94 94 94 94 94 94 94 13 13 13
 13 13 22 22 22 22 59 59 59 11 69 69 69 6 6 94 94 94 94 94
 94 94 3 13 13 13 13 22 22 22 22 59 59 11 11 11 11 27 6 6
 41 41 94 3 3 3 3 3 3 13 13 13 22 9 9 9 9 11 11 11
 11 11 11 27 27 41 41 41 3 3 3 3 3 3 3 25 25 9 9 9
 9 9 9 11 11 11 11 27 27 27 41 41 41 3 3 3 3 3 3 3
 3 49 9 9 9 9 9 9 11 11 11 11 11 27 70 70 41 70 3 3
 3 3 3 3 3 3 49 9 9 9 9 9 9 11 11 11 11 11 70 70
 70 70 70 70 3 3 3 3 3 3 3 87 87 87 9 9 9 50 50 50
 50 17 17 70 70 70 70 70 70 3 3 3 3 3 66 87 87 87 87 87
 87 50 50 17 17 17 17 17 70 70 70 70 70 70 3 3 3 3 66 66
 87 87 87 87 87 87 17 17 17 17 17 17 17 17 70 29 29 29 29 29
 3 15 15 15 66 87 87 87 87 87 87 17 17 17 17 17 17 17 17 70
 29 29 29 29 29 95 95 102 80 80 87 87 87 87 87 87 17 17 17 17
 17 17 17 17 70 29 29 29 29 95 95 102 102 80 80 80 87 87 87 87
 87 17 17 17 17 17 17 17 17 17 29 29 29 95 95 102 102 102 80 80
 80 87 87 87 87 87 17 17 17 17 17 17 17 17 17 43 29 29 95 95
 102 102 102 80 80 80 87 87 87 61 61 61 17 17 17 17 17 17 17 17
 47 47 47 43 95 95 102 102 80 80 61 61 61 61 61 61 61 61 50 50
 17 17 17 17 43 47 47 47 47 95 95 102 102 80 80 61 61 61 61 61
 61 61 61 61 61 17 17 17 17 43 6 43 43 89 89 89 89 7 7 61
 61 61 61 61 61 61 61 61 61 61 6 6 6 6 6 6 6 89 89 89
 89 89 7 7 7 61 61 61 61 61 61 61 61 61 61 6 6 6 6 6
 6 6 89 89 89 89 7 7 7 7 7 61 61 61 61 61 61 61 61 61
 6 6 6 6 6 6 6 94 94 89 7 7 7 7 7 7 61 61 61 61
 61 61 61 61 6 6 6 6 6 6 6 6 94 94 89 7 7 7 7 7
 7 7 61 61 61 61 61 61 61 6 6 6 6 6 6 6 6 94 94 94
 7 7 7 7 7 13 22 22 22 22 61 61 61 6 6 6 6 6 6 6
 6 94 94 94 94 94 7 7 13 13 13 22 22 22 22 22 61 69 69 69
 69 69 6 6 6 6 94 94 94 94 94 7 7 13 13 13 22 22 22 22
 22 22 69 69 69 69 69 69 6 6 6 94 94 94 94 94 7 7 13 13
 13 22 22 22 22 22 59 59 69 69 69 69 69 6 6 6 94 94 94 94
 94 94 7 13 13 13 13 22 22 22 22 59 59 59 11 69 69 69 6 6
 6 94 94 94 94 94 94 7 13 13 13 13 22 22 22 22 9 59 11 11
 11 11 11 6 6 41 94 94 94 94 94 3 3 3 13 25 25 9 9 9
 9 9 11 11 11 11 11 11 6 6 41 41 41 3 3 3 3 3 3 25
 25 25 9 9 9 9 9 9 11 11 11 11 11 70 70 70 41 41 70 3
 3 3 3 3 3 49 49 9 9 9 9 9 9 11 11 11 54 54 70 70
 70 70 70 70 3 3 3 3 3 64 64 49 9 9 9 9 9 9 11 11
 11 54 54 70 70 70 70 70 70 3 3 3 3 66 66 66 87 87 9 9
 9 9 9 11 11 11 54 70 70 70 70 70 70 70 70 3 15 15 66 66
 66 87 87 87 87 87 87 17 17 17 17 17 70 70 70 70 70 70 70 70
 15 15 15 15 66 66 87 87 87 87 87 17 17 17 17 17 17 17 70 70
 29 29 29 29 95 95 15 15 15 66 87 87 87 87 87 87 17 17 17 17
 17 17 17 17 70 29 29 29 29 95 95 95 95 80 80 80 87 87 87 87
 87 17 17 17 17 17 17 17 17 70 29 29 29 29 95 95 95 95 80 80
 80 87 87 87 87 87 17 17 17 17 17 17 17 17 17 29 29 29 95 95
 95 95 95 80 80 80 87 87 87 87 87 17 17 17 17 17 17 17 17 17
 43 29 43 95 95 95 95 102 80 80 80 80 87 87 61 61 61 17 17 17
 17 17 17 17 43 43 43 43 43 95 95 95 95 80 80 80 61 61 61 61
 61 61 61 17 17 17 17 17 17 43 43 43 43 43 95 95 95 95 80 80
 61 61 61 61 61 61 61 61 61 61 17 17 17 43 43 43 43 43 43 89
 89 89 7 7 7 61 61 61 61 61 61 61 61 61 61 6 6 6 6 6
 6 43 43 89 89 89 89 7 7 7 7 61 61 61 61 61 61 61 61 61
 6 6 6 6 6 6 43 43 89 89 89 7 7 7 7 7 61 61 61 61
 61 61 61 61 6 6 6 6 6 6 6 6 89 89 89 7 7 7 7 7
 7 7 61 61 61 61 61 61 61 6 6 6 6 6 6 6 6 94 94 7
 7 7 7 7 7 7 7 61 61 61 61 61 61 61 6 6 6 6 6 6
 6 6 94 94 7 7 7 7 7 7 7 7 22 22 22 61 61 61 6 6
 6 6 6 6 6 6 6 94 94 94 7 7 7 7 7 7 7 22 22 22
 22 61 69 69 69 69 69 6 6 6 6 94 94 94 94 7 7 7 7 7
 13 22 22 22 22 22 22 69 69 69 69 69 69 6 6 6 94 94 94 94
 94 7 7 7 13 13 22 22 22 22 22 22 59 69 69 69 69 69 6 6
 6 94 94 94 94 94 7 7 7 13 13 13 22 22 22 22 22 59 69 69
 69 69 69 6 6 6 94 94 94 94 94 7 7 7 13 13 25 22 22 22
 9 9 31 11 11 11 11 6 6 6 70 94 94 94 94 94 19 7 7 25
 25 25 25 9 9 9 9 31 11 11 11 11 11 6 6 70 70 70 70 3
 3 3 3 25 25 25 25 25 9 9 9 9 9 11 11 11 54 54 70 70
 70 70 70 70 70 3 3 3 64 64 49 49 49 9 9 9 9 9 11 11
 11 54 54 70 70 70 70 70 70 70 3 3 64 64 64 64 49 71 9 9
 9 9 9 31 11 11 54 54 70 70 70 70 70 70 70 70 15 64 64 64
 64 71 71 71 9 9 9 31 31 11 11 54 70 70 70 70 70 70 70 70
 70 15 15 15 66 66 12 71 71 71 71 71 17 17 17 17 17 70 70 70
 70 70 70 70 70 15 15 15 15 66 66 12 87 87 87 90 90 17 17 17
 17 17 17 70 70 29 29 29 29 95 95 15 15 15 66 66 87 87 87 87
 90 90 17 17 17 17 17 17 17 70 29 29 29 29 95 95 95 95 15 66
 80 87 87 87 87 90 90 17 17 17 17 17 17 17 70 29 29 29 29 95
 95 95 95 80 80 80 80 87 87 87 90 90 17 17 17 17 17 17 17 17
 29 29 29 95 95 95 95 95 80 80 80 80 87 87 87 90 90 17 17 17
 17 17 17 17 43 43 43 43 95 95 95 95 95 80 80 80 80 87 87 61
 61 61 17 17 17 17 17 17 43 43 43 43 43 43 95 95 95 95 80 80
 80 61 61 61 61 61 61 61 61 17 17 17 17 43 43 43 43 43 43 43
 95 95 95 80 80 61 61 61 61 61 61 61 61 61 61 17 17 43 43 43
 43 43 43 43 43 43 7 7 7 7 7 61 61 61 61 61 61 61 61 61
 6 6 6 6 6 6 43 43 43 89 89 7 7 7 7 7 7 61 61 61
 61 61 61 61 61 6 6 6 6 6 6 6 43 89 89 89 7 7 7 7
 7 7 61 61 61 61 61 61 61 6 6 6 6 6 6 6 6 6 7 7
 7 7 7 7 7 7 7 61 61 61 61 61 61 61 6 6 6 6 6 6
 6 6 6 7 7 7 7 7 7 7 7 7 7 61 61 61 61 61 6 6
 6 6 6 6 6 6 6 6 7 7 7 7 7 7 7 7 7 22 61 61
 61 61 61 6 6 6 6 6 6 6 6 6 94 94 7 7 7 7 7 7
 7 7 22 22 22 24 24 69 69 69 69 69 6 6 6 6 6 94 94 7
 7 7 7 7 7 7 7 22 22 22 24 24 69 69 69 69 69 69 6 6
 6 6 94 94 94 7 7 7 7 7 7 7 22 22 22 24 24 69 69 69
 69 69 69 6 6 6 94 94 94 94 7 7 7 7 7 7 7 22 22 22
 24 31 31 69 69 69 69 69 6 6 6 94 94 94 19 19 19 7 7 7
 25 25 25 22 9 31 31 31 31 11 11 11 6 6 6 88 88 94 94 19
 19 19 7 7 25 25 25 25 9 9 9 31 31 31 11 11 11 6 6 6
 88 88 88 88 19 19 19 19 64 25 25 25 49 9 9 9 9 31 31 31
 11 54 54 70 70 88 88 70 70 70 19 19 64 64 64 49 49 49 9 9
 9 9 31 31 31 31 54 54 70 70 70 70 70 70 70 70 64 64 64 64
 64 49 71 71 9 9 9 31 31 31 31 54 54 70 70 70 70 70 70 70
 70 64 64 64 64 64 71 71 71 71 9 31 31 31 31 31 54 54 70 70
 70 70 70 70 70 70 15 15 64 64 12 12 71 71 71 71 31 31 4 4
 4 17 70 70 70 70 70 70 70 70 95 15 15 15 66 12 12 12 71 90
 90 90 90 4 4 4 17 17 70 70 29 29 29 29 95 95 95 15 15 66
 12 12 12 90 90 90 90 90 17 17 17 17 17 17 70 29 29 29 29 95
 95 95 95 104 104 12 87 87 90 90 90 90 90 17 17 17 17 17 17 70
 29 29 29 95 95 95 95 95 95 80 80 80 26 26 90 90 90 90 17 17
 17 17 17 17 43 43 43 43 95 95 95 95 95 80 80 80 80 26 26 26
 90 90 90 17 17 17 17 17 43 43 43 43 43 43 95 95 95 95 80 80
 80 80 26 26 26 61 90 90 17 17 17 17 43 43 43 43 43 43 43 43
 95 95 95 80 80 80 61 61 61 61 61 61 61 61 17 17 17 43 43 43
 43 43 43 43 43 43 95 95 80 80 80 61 61 61 61 61 61 61 61 61
 17 43 43 43 43 43 43 43 43 43 43 43 7 7 7 7 61 61 61 61
 61 61 61 61 61 6 6 6 6 43 43 43 43 43 43 7 7 7 7 7
 7 7 61 61 61 61 61 61 61 61 6 6 6 6 6 6 6 43 43 7
 7 7 7 7 7 7 7 61 61 61 61 61 61 61 6 6 6 6 6 6
 6 6 6 7 7 7 7 7 7 7 7 7 7 61 61 61 61 61 61 6
 6 6 6 6 6 6 6 6 7 7 7 7 7 7 7 7 7 7 61 61
 61 61 61 6 6 6 6 6 6 6 6 6 6 7 7 7 7 7 7 7
 7 7 21 21 24 24 24 24 6 6 6 6 6 6 6 6 6 6 7 7
 7 7 7 7 7 7 21 21 21 24 24 24 24 69 69 69 6 6 6 6
 6 6 94 7 7 7 7 7 7 7 7 21 21 24 24 24 24 24 14 69
 69 69 6 6 6 6 6 94 94 7 7 7 7 7 7 7 21 21 24 24
 24 24 24 69 69 69 69 6 6 6 6 6 94 94 7 7 7 7 7 7
 7 21 21 24 24 24 24 31 31 69 69 69 6 6 6 6 88 94 94 19
 19 19 7 7 7 7 25 21 31 31 31 31 31 31 31 31 69 6 6 6
 88 88 88 19 19 19 19 7 7 7 25 25 49 31 31 31 31 31 31 31
 31 11 6 6 6 88 88 88 88 19 19 19 19 64 49 49 49 49 31 31
 31 31 31 31 31 31 31 31 72 70 88 88 88 70 19 19 19 64 64 64
 49 49 49 71 9 31 31 31 31 31 31 31 31 70 70 88 88 70 70 70
 70 64 64 64 64 64 49 71 71 71 31 31 31 31 31 31 54 54 70 70
 70 70 70 70 70 70 64 64 64 64 64 71 71 71 71 31 31 31 31 31
 31 31 97 70 70 70 70 70 70 70 95 15 64 64 64 64 12 71 71 71
 71 31 31 4 4 4 4 97 97 70 70 70 70 70 95 95 104 104 104 64
 12 12 12 71 90 90 90 90 4 4 4 4 97 97 70 70 29 29 95 95
 95 104 104 104 104 12 12 12 90 90 90 90 90 4 4 4 17 97 97 97
 43 43 95 95 95 95 95 104 104 104 12 12 90 90 90 90 90 90 90 17
 17 17 17 97 97 43 43 43 95 95 95 95 95 104 104 80 80 26 26 90
 90 90 90 90 17 17 17 17 43 43 43 43 43 43 95 95 95 95 95 80
 80 80 26 26 26 90 90 90 17 17 17 17 43 43 43 43 43 43 43 95
 95 95 95 95 80 80 80 26 26 26 90 90 90 17 17 17 58 43 43 43
 43 43 43 43 43 95 95 95 95 80 80 80 26 61 61 61 61 61 61 58
 58 58 43 43 43 43 43 43 43 43 43 95 95 95 80 80 61 61 61 61
 61 61 61 61 58 58 58 43 43 43 43 43 43 43 43 43 43 7 7 7
 7 52 52 61 61 61 61 61 61 28 28 6 6 43 43 43 43 43 43 43
 43 7 7 7 7 7 7 52 61 61 61 61 61 61 28 6 6 6 6 6
 6 6 43 43 7 7 7 7 7 7 7 7 52 61 68 61 61 61 28 6
 6 6 6 6 6 6 6 43 7 7 7 7 7 7 7 7 7 7 68 68
 68 68 68 28 6 6 6 6 6 6 103 103 6 7 7 7 7 7 7 7
 7 7 7 68 68 24 24 24 6 6 6 6 6 6 6 103 103 6 7 7
 7 7 7 7 7 7 21 21 21 24 24 24 24 14 14 6 6 6 6 6
 103 103 6 7 7 7 7 7 7 7 7 21 21 21 24 24 24 24 14 14
 14 6 6 6 6 6 6 94 7 7 7 7 7 7 7 21 21 21 24 24
 24 24 24 14 14 14 6 6 6 6 6 6 94 7 7 7 7 7 7 7
 21 21 21 24 24 24 24 24 14 14 14 6 6 6 6 6 72 72 46 46
 46 7 7 7 7 21 21 21 24 24 24 24 31 31 14 14 69 6 6 6
 72 72 72 46 46 46 46 46 7 7 21 21 21 24 31 31 31 31 31 31
 31 69 6 6 72 72 72 72 46 46 46 46 46 46 49 49 49 49 31 31
 31 31 31 31 31 31 31 6 72 72 88 88 88 46 46 46 46 46 46 49
 49 49 49 31 31 31 31 31 31 31 31 31 31 72 72 88 88 88 46 46
 46 46 46 64 64 49 49 49 71 31 31 31 31 31 31 31 31 31 72 72
 65 65 65 70 46 46 46 64 64 64 64 49 71 71 71 31 31 31 31 31
 31 31 31 70 70 65 65 65 70 70 46 64 64 64 64 64 35 71 71 71
 31 31 31 31 31 31 31 97 97 70 65 65 65 70 70 104 104 104 64 64
 64 12 71 71 71 31 31 31 31 31 31 97 97 97 97 70 70 70 95 104
 104 104 104 104 104 12 12 12 71 90 90 90 31 4 4 4 4 97 97 97
 70 43 29 95 95 104 104 104 104 104 12 12 12 90 90 90 90 90 4 4
 4 97 97 97 97 43 43 43 95 95 95 104 104 104 104 104 12 90 90 90
 90 90 90 90 4 4 97 97 97 97 43 43 43 95 95 95 95 104 104 104
 104 104 26 26 90 90 90 90 90 58 58 58 58 43 43 43 43 43 43 95
 95 95 95 104 104 104 26 26 26 26 90 90 90 90 58 58 58 58 43 43
 43 43 43 43 43 95 95 95 95 80 80 26 26 26 26 90 90 90 90 58
 58 58 58 43 43 43 43 43 43 43 43 95 95 95 80 80 26 26 26 26
 61 61 90 58 58 58 58 58 43 43 43 43 43 43 43 43 43 95 95 80
 52 52 61 61 61 61 61 61 58 58 58 58 58 43 43 43 43 43 43 43
 43 43 7 7 52 52 52 52 52 68 68 68 68 28 28 28 58 58 43 43
 43 43 43 43 43 43 7 7 7 7 52 52 52 68 68 68 68 68 28 28
 28 28 6 6 43 100 100 43 43 7 7 7 7 7 7 7 52 52 68 68
 68 68 68 28 28 28 6 6 6 100 103 100 100 8 8 7 7 7 7 7
 7 7 52 68 68 68 68 68 28 28 28 6 6 6 100 103 103 8 8 8
 8 7 7 7 7 7 7 7 68 68 68 68 68 14 14 6 6 6 6 103
 103 103 8 8 8 8 7 7 7 7 7 21 21 24 24 24 24 24 14 14
 6 6 6 6 103 103 103 8 8 8 8 7 7 7 7 7 21 21 24 24
 24 24 24 14 14 14 14 6 6 103 103 103 8 8 8 7 7 7 7 7
 21 21 21 24 24 24 24 24 14 14 14 14 6 6 6 72 72 72 8 7
 7 7 7 7 7 21 21 21 24 24 24 24 24 14 14 14 14 6 6 6
 72 72 72 46 46 46 46 7 7 7 21 21 21 24 24 24 24 31 31 14
 14 14 72 72 72 72 72 72 46 46 46 46 46 7 7 21 21 21 24 31
 31 31 31 31 31 31 14 72 72 72 72 72 72 46 46 46 46 46 46 35
 35 35 35 31 31 31 31 31 31 31 31 31 72 72 72 72 72 72 46 46
 46 46 46 35 35 35 35 35 35 31 31 31 31 31 31 31 31 72 72 72
 65 65 65 72 46 46 46 46 35 35 35 35 35 35 31 31 31 31 31 31
 31 31 31 72 72 65 65 65 65 46 46 46 35 35 35 35 35 35 35 31
 31 31 31 31 31 31 31 31 97 72 65 65 65 65 65 104 104 35 35 35
 35 35 35 35 31 31 31 31 31 31 31 31 97 97 97 65 65 65 65 65
 104 104 104 35 35 35 35 35 35 35 31 31 31 31 31 31 31 97 97 97
 65 65 65 65 104 104 104 104 104 35 35 35 35 35 90 90 31 31 31 31
 4 97 97 97 97 43 43 43 95 95 104 104 104 104 104 35 35 35 90 90
 90 90 90 31 4 4 97 97 97 97 43 43 43 43 95 104 104 104 104 104
 104 35 90 90 90 90 90 90 90 58 58 58 97 97 97 43 43 43 43 95
 95 104 104 104 104 104 104 26 90 90 90 90 90 58 58 58 58 58 58 43
 43 43 43 43 43 95 95 104 104 104 104 104 26 90 90 90 90 90 58 58
 58 58 58 58 43 43 43 43 43 43 43 95 95 95 104 104 26 26 26 26
 90 90 58 58 58 58 58 58 58 43 43 43 43 43 43 43 43 95 95 52
 52 52 52 26 26 90 90 58 58 58 58 58 58 58 43 43 43 43 43 43
 43 43 43 43 52 52 52 52 52 52 61 61 58 58 58 58 58 58 43 43
 43 43 43 43 43 43 43 43 52 52 52 52 52 52 68 68 68 68 28 28
 28 58 58 58 43 100 100 43 43 43 43 7 7 7 52 52 52 52 52 68
 68 68 68 28 28 28 28 28 28 43 100 100 100 100 8 8 7 7 7 52
 52 52 52 68 68 68 68 68 28 28 28 28 28 6 100 100 100 100 8 8
 8 8 7 7 7 52 52 52 68 68 68 68 68 28 28 28 28 100 100 100
 103 100 100 8 8 8 8 7 7 7 7 7 52 68 68 68 68 68 28 28
 28 6 100 100 103 103 103 8 8 8 8 8 8 7 7 7 21 21 24 68
 68 68 24 63 63 63 63 6 103 103 103 103 8 8 8 8 8 7 7 7
 7 21 21 24 24 24 24 24 63 63 63 63 6 103 103 103 103 8 8 8
 8 8 7 7 7 21 21 21 24 24 24 24 24 63 63 63 63 6 6 72
 72 72 72 8 8 8 7 7 7 7 21 21 21 24 24 24 24 24 63 63
 63 63 72 72 72 72 72 72 72 46 46 46 7 7 7 21 21 21 24 24
 24 24 31 63 63 63 63 72 72 72 72 72 72 72 46 46 46 46 46 93
 93 93 93 24 31 31 31 31 31 31 31 72 72 72 72 72 72 72 72 46
 46 46 46 46 93 93 93 93 93 31 31 31 31 31 31 31 31 72 72 72
 72 72 72 72 46 46 46 46 35 35 35 35 35 35 31 31 31 31 31 31
 31 31 72 72 72 72 65 65 72 72 46 46 46 35 35 35 35 35 35 31
 31 31 31 31 31 31 31 72 72 72 65 65 65 72 72 46 46 35 35 35
 35 35 35 35 35 31 31 31 31 31 31 31 31 72 72 65 65 65 65 65
 46 35 35 35 35 35 35 35 35 35 31 31 31 31 31 31 31 97 97 72
 65 65 65 65 104 104 104 104 35 35 35 35 35 35 35 31 31 31 31 31
 31 31 97 97 97 65 65 65 65 104 104 104 104 104 35 35 35 35 35 35
 31 31 31 31 31 31 97 97 97 97 51 43 43 104 104 104 104 104 104 104
 35 35 35 35 90 90 90 90 31 58 58 58 97 97 97 43 43 43 43 95
 104 104 104 104 104 104 35 35 90 90 90 90 90 58 58 58 58 58 51 51
 43 43 43 43 43 104 104 104 104 104 104 35 35 90 90 90 90 58 58 58
 58 58 58 58 58 43 43 43 43 43 43 104 104 104 104 104 35 26 90 90
 90 90 58 58 58 58 58 58 58 43 43 43 43 43 43 43 43 95 95 104
 52 52 52 26 26 90 58 58 58 58 58 58 58 58 43 43 43 43 43 43
 43 43 95 95 52 52 52 52 52 52 90 58 58 58 58 58 58 58 58 43
 43 43 43 43 43 43 43 43 52 52 52 52 52 52 52 52 58 58 58 58
 58 58 58 58 43 100 100 43 43 67 67 67 67 52 52 52 52 52 52 52
 68 68 28 28 28 28 58 58 58 58 100 100 100 100 100 67 67 67 52 52
 52 52 52 52 68 68 68 28 28 28 28 28 28 58 100 100 100 100 100 8
 8 8 8 52 52 52 52 52 52 68 68 68 28 28 28 28 28 100 100 100
 100 100 100 100 8 8 8 8 7 52 52 52 52 68 68 68 68 68 28 28
 28 28 100 100 100 100 100 100 8 8 8 8 8 8 7 52 52 52 68 68
 68 68 68 28 28 28 28 100 100 100 100 100 100 8 8 8 8 8 8 7
 7 52 52 68 68 68 68 68 63 63 63 63 100 100 100 100 100 8 8 8
 8 8 8 8 7 7 21 21 24 24 24 24 63 63 63 63 63 63 100 100
 72 72 8 8 8 8 8 8 8 7 21 21 21 24 24 24 24 63 63 63
 63 63 63 72 72 72 72 72 72 8 8 8 8 8 7 21 21 21 24 24
 24 24 63 63 63 63 63 72 72 72 72 72 72 72 72 46 46 7 7 93
 93 93 93 24 24 24 24 63 63 63 63 63 72 72 72 72 72 72 72 72
 46 46 46 93 93 93 93 93 93 31 31 31 31 31 31 31 72 72 72 72
 72 72 72 72 72 46 46 46 93 93 93 93 93 93 31 31 31 31 31 31
 31 72 72 72 72 72 72 72 72 72 46 46 46 93 93 93 93 93 93 31
 31 31 31 31 31 31 91 72 72 72 72 72 72 72 72 72 46 35 35 35
 93 93 35 35 35 31 31 31 31 31 31 91 72 72 72 72 65 72 72 72
 72 35 35 35 35 35 35 35 35 35 31 31 31 31 31 31 31 72 72 72
 72 65 65 72 72 72 35 35 35 35 35 35 35 35 35 31 31 31 31 31
 31 31 72 72 72 65 65 65 65 104 104 104 35 35 35 35 35 35 35 35
 31 31 31 31 31 31 31 51 51 51 51 51 65 104 104 104 104 104 104 35
 35 35 35 35 35 31 31 31 31 31 58 51 51 51 51 51 51 43 104 104
 104 104 104 104 35 35 35 35 35 35 90 31 31 58 58 58 58 51 51 51
 51 51 43 43 95 104 104 104 104 104 35 35 35 35 90 90 90 58 58 58
 58 58 51 51 51 51 43 43 43 43 104 104 104 104 104 35 35 35 35 90
 90 90 58 58 58 58 58 58 51 51 43 43 43 43 67 67 67 104 104 104
 104 35 35 35 90 90 58 58 58 58 58 58 58 58 58 43 43 43 43 67
 67 67 67 67 52 52 52 52 52 52 58 58 58 58 58 58 58 58 58 58
 43 43 43 43 67 67 67 67 52 52 52 52 52 52 52 58 58 58 58 58
 58 58 58 58 58 43 43 43 43 67 67 67 67 52 52 52 52 52 52 52
 52 58 58 58 58 58 58 58 58 58 100 100 100 67 67 67 67 67 52 52
 52 52 52 52 52 68 68 58 28 28 28 58 58 58 100 100 100 100 100 100
 67 67 67 52 52 52 52 52 52 68 68 68 28 28 28 28 28 28 100 100
 100 100 100 100 100 8 8 8 52 52 52 52 52 52 68 68 68 28 28 28
 28 28 100 100 100 100 100 100 100 8 8 8 8 52 52 52 52 52 52 68
 68 68 28 28 28 28 28 100 100 100 100 100 100 100 8 8 8 8 8 52
 52 52 52 52 68 68 68 68 28 28 28 28 100 100 100 100 100 100 8 8
 8 8 8 8 7 52 52 52 52 68 68 68 68 28 63 63 2 100 100 100
 100 100 100 8 8 8 8 8 8 7 7 52 21 24 68 68 68 63 63 63
 63 63 100 100 100 72 72 72 8 8 8 8 8 8 8 21 21 21 24 24
 24 2 63 63 63 63 63 2 72 72 72 72 72 72 8 8 8 8 8 8
 93 21 21 24 24 24 2 63 63 63 63 2 72 72 72 72 72 72 72 72
 72 8 8 8 93 93 93 93 93 24 24 2 2 63 63 2 2 72 72 72
 72 72 72 72 72 72 46 46 93 93 93 93 93 93 93 31 31 31 31 2
 2 72 72 72 72 72 72 72 72 72 72 72 93 93 93 93 93 93 93 93
 31 31 31 31 31 31 72 72 72 72 72 72 72 72 72 72 72 72 93 93
 93 93 93 93 93 31 31 31 31 31 91 91 91 72 72 72 72 72 72 72
 72 72 93 93 93 93 93 93 93 93 31 31 31 31 31 91 91 91 72 72
 72 72 72 72 72 72 72 35 35 35 93 93 35 35 35 31 31 31 31 31
 91 91 91 72 72 72 72 72 72 72 72 35 35 35 35 35 35 35 35 35
 31 31 31 31 31 31 91 91 72 72 72 72 72 72 72 104 35 35 35 35
 35 35 35 35 35 35 31 31 31 31 58 51 51 51 51 51 51 72 72 104
 104 104 104 96 96 35 35 35 35 35 35 31 31 31 58 58 51 51 51 51
 51 51 51 98 98 98 104 104 96 96 96 35 35 35 35 35 31 58 58 58
 58 51 51 51 51 51 51 51 98 98 98 104 104 104 96 96 35 35 35 35
 90 58 58 58 58 58 58 51 51 51 51 51 67 67 67 67 67 67 104 104
 96 35 35 35 90 58 58 58 58 58 58 58 51 51 51 51 43 67 67 67
 67 67 67 104 104 96 52 52 52 58 58 58 58 58 58 58 58 58 58 51
 58 43 67 67 67 67 67 67 67 67 52 52 52 52 52 58 58 58 58 58
 58 58 58 58 58 43 43 67 67 67 67 67 67 67 52 52 52 52 52 52
 58 58 58 58 58 58 58 58 58 58 100 100 43 67 67 67 67 67 52 52
 52 52 52 52 52 52 58 58 58 58 58 58 58 58 58 100 100 100 100 67
 67 67 67 52 52 52 52 52 52 52 68 58 58 28 28 28 58 58 58 100
 100 100 100 100 100 67 67 67 52 52 52 52 52 52 52 68 68 28 28 28
 28 28 28 100 100 100 100 100 100 100 100 8 8 52 52 52 52 52 52 52
 68 68 28 28 28 28 28 28 100 100 100 100 100 100 100 8 8 8 52 52
 52 52 52 52 68 68 68 28 28 28 28 28 100 100 100 100 100 100 100 8
 8 8 8 8 52 52 52 52 52 34 68 68 28 28 28 28 28 100 100 100
 100 100 100 100 8 8 8 8 8 52 52 52 52 34 34 34 34 2 2 2
 2 2 100 100 100 100 100 100 8 8 8 8 8 8 8 52 52 52 34 34
 34 34 2 2 2 2 2 2 100 100 72 72 100 8 8 8 8 8 8 8
 30 52 30 34 34 34 2 2 2 2 2 2 2 72 72 72 72 72 72 72
 8 8 8 8 30 30 30 30 30 34 2 2 2 2 2 2 2 2 72 72
 72 72 72 72 72 72 8 8 30 30 30 30 30 30 30 2 2 2 2 2
 2 2 72 72 72 72 72 72 72 72 72 72 72 93 93 93 93 93 93 93
 2 2 2 2 2 2 72 72 72 72 72 72 72 72 72 72 72 72 93 93
 93 93 93 93 93 31 31 31 31 2 91 91 72 72 72 72 72 72 72 72
 72 72 72 93 93 93 93 93 93 93 31 31 31 31 31 91 91 91 72 72
 72 72 72 72 72 72 72 72 93 93 93 93 93 93 93 93 31 31 31 91
 91 91 91 72 72 72 72 72 72 72 72 72 35 93 93 93 93 93 93 93
 93 31 31 31 42 91 91 91 42 72 72 72 72 72 72 72 72 35 35 35
 35 35 35 35 35 31 31 31 31 31 42 42 42 42 42 72 72 72 72 72
 72 96 96 96 96 35 35 35 35 35 35 31 31 31 31 42 42 42 51 51
 51 51 51 98 98 98 104 96 96 96 96 35 35 35 35 35 99 99 58 58
 58 51 51 51 51 51 51 51 98 98 98 98 96 96 96 96 35 35 35 35
 99 99 58 58 58 58 51 51 51 51 51 51 51 98 98 98 98 79 96 96
 96 35 35 35 35 58 58 58 58 58 58 58 51 51 51 51 51 67 67 67
 98 67 79 79 96 96 53 53 53 58 58 58 58 58 58 58 58 51 51 51
 51 51 67 67 67 67 67 67 67 67 53 52 53 53 58 58 58 58 58 58
 58 58 58 58 51 58 43 67 67 67 67 67 67 67 67 52 52 52 52 52
 58 58 58 58 58 58 58 58 58 58 58 43 67 67 67 67 67 67 67 52
 52 52 52 52 52 58 58 58 58 58 58 58 58 58 58 100 100 100 67 67
 67 67 67 67 52 52 52 52 52 52 52 58 58 58 58 58 58 58 58 58
 100 100 100 100 67 67 67 67 52 52 52 52 52 52 52 52 58 58 58 58
 58 58 58 58 100 100 100 100 100 100 67 67 67 52 52 52 52 52 52 52
 68 68 28 28 28 28 28 58 100 100 100 100 100 100 100 100 8 67 52 52
 52 52 52 52 52 68 68 28 28 28 28 28 100 100 100 100 100 100 100 100
 100 8 8 52 52 52 52 52 52 34 34 34 28 28 28 28 28 100 100 100
 100 100 100 100 100 8 8 57 57 52 52 52 52 34 34 34 34 28 28 28
 28 2 100 100 100 100 100 100 100 100 8 8 57 57 57 52 52 52 34 34
 34 34 2 2 2 2 2 2 100 100 100 100 100 100 8 8 8 57 57 57
 57 52 34 34 34 34 34 2 2 2 2 2 2 100 100 72 72 100 100 8
 8 8 57 57 57 57 30 34 34 34 34 2 2 2 2 2 2 2 2 72
 72 72 72 72 72 8 8 57 57 30 30 30 30 30 34 2 2 2 2 2
 2 2 2 72 72 72 72 72 72 72 72 72 57 30 30 30 30 30 30 30
 2 2 2 2 2 2 2 72 72 72 72 72 72 72 72 72 72 72 30 30
 30 30 30 30 30 2 2 2 2 2 2 2 72 72 72 72 72 72 72 72
 72 72 72 93 93 30 30 30 30 93 2 2 2 2 2 2 91 72 72 72
 72 72 72 72 72 72 72 72 93 93 93 93 93 93 93 93 31 31 31 2
 91 91 91 72 72 72 72 72 72 72 72 72 72 93 93 93 93 93 93 93
 93 31 31 31 42 91 91 91 72 72 72 72 72 72 72 72 72 93 93 93
 93 93 93 93 93 93 31 99 31 42 42 42 42 42 72 72 72 72 72 72
 72 72 93 93 93 93 93 93 93 93 99 99 99 99 42 42 42 42 42 42
 72 72 72 72 72 72 96 96 96 96 96 35 35 35 35 99 99 99 99 99
 42 42 42 42 51 51 51 72 72 98 98 96 96 96 96 96 35 35 35 35
 99 99 99 99 99 42 42 51 51 51 51 51 51 98 98 98 79 96 96 96
 96 96 35 35 99 99 99 99 99 58 58 51 51 51 51 51 51 51 98 98
 98 79 79 96 96 96 96 53 53 99 99 99 58 58 58 58 58 51 51 51
 51 51 67 67 67 79 79 79 79 53 53 53 53 53 53 58 58 58 58 58
 58 58 58 51 51 51 51 67 67 67 67 67 79 79 53 53 53 53 53 53
 58 58 58 58 58 58 58 58 58 51 58 58 67 67 67 67 67 67 67 53
 53 53 53 53 53 58 58 58 58 58 58 58 58 58 58 58 58 67 67 67
 67 67 67 67 52 52 52 52 52 52 58 58 58 58 58 58 58 58 58 58
 100 100 100 67 67 67 67 67 67 52 52 52 52 52 52 52 58 58 58 58
 58 58 58 58 58 100 100 100 100 67 67 67 67 52 52 52 52 52 52 52
 62 62 58 58 58 58 58 58 58 100 100 100 100 100 100 67 67 67 52 52
 52 52 52 52 52 62 62 28 28 28 28 28 58 100 100 100 100 100 100 100
 100 57 57 52 52 52 52 52 52 52 62 62 28 28 28 28 28 100 100 100
 100 100 100 100 100 100 57 57 57 52 52 52 52 52 34 34 34 28 28 28
 28 28 100 100 100 100 100 100 100 100 57 57 57 57 57 52 52 52 34 34
 34 34 34 2 2 2 2 2 100 100 100 100 100 100 100 57 57 57 57 57
 57 52 52 34 34 34 34 34 2 2 2 2 2 100 100 100 100 100 100 100
 57 57 57 57 57 57 57 34 34 34 34 34 2 2 2 2 2 2 2 100
 72 72 72 100 8 57 57 57 57 57 57 30 60 34 34 34 2 2 2 2
 2 2 2 2 72 72 72 72 72 72 72 57 57 57 57 30 30 30 30 34
 2 2 2 2 2 2 2 2 72 72 72 72 72 72 72 72 72 57 30 30
 30 30 30 30 30 2 2 2 2 2 2 2 2 72 72 72 72 72 72 72
 72 72 30 30 30 30 30 30 30 30 2 2 2 2 2 2 2 72 72 72
 72 72 72 72 72 72 72 30 30 30 30 30 30 30 30 30 2 2 2 2
 2 2 72 72 72 72 72 72 72 72 72 72 93 93 93 30 30 30 30 93
 93 31 2 2 2 91 91 72 72 72 72 72 72 72 72 72 72 93 93 93
 93 93 93 93 93 93 99 99 42 42 42 42 42 72 72 48 48 48 72 72
 72 72 93 93 93 93 93 93 93 93 93 99 99 99 42 42 42 42 42 72
 48 48 48 48 72 72 72 93 93 93 93 93 93 93 93 99 99 99 99 42
 42 42 42 42 42 48 48 48 48 72 72 96 96 96 96 93 93 93 93 99
 99 99 99 99 99 42 42 42 42 42 51 51 48 48 79 79 96 96 96 96
 96 35 35 35 99 99 99 99 99 99 42 42 42 42 51 51 51 86 86 79
 79 79 79 96 96 96 96 53 99 99 99 99 99 99 99 58 58 51 51 51
 51 51 86 86 79 79 79 79 79 96 53 53 53 53 99 99 99 99 99 58
 58 58 58 51 51 51 86 86 86 79 79 79 79 79 53 53 53 53 53 53
 99 99 58 58 58 58 58 58 58 51 86 86 86 86 67 79 79 79 79 53
 53 53 53 53 53 58 58 58 58 58 58 58 58 58 58 86 86 86 67 67
 67 67 67 67 53 53 53 53 53 53 58 58 58 58 58 58 58 58 58 58
 86 86 86 67 67 67 67 67 67 52 52 52 52 52 62 62 58 58 58 58
 58 58 58 58 58 86 86 86 67 67 67 67 67 67 52 52 52 52 52 52
 62 58 58 58 58 58 58 58 58 58 86 86 84 84 84 67 67 67 52 52
 52 52 52 62 62 62 62 58 58 58 58 58 58 58 100 100 100 84 84 84
 67 67 57 52 52 52 52 52 62 62 62 62 62 58 58 58 58 58 100 100
 100 100 100 84 84 57 57 57 57 52 52 52 52 52 62 62 62 62 77 77
 28 28 100 100 100 100 100 100 100 100 57 57 57 57 57 52 52 52 52 62
 62 62 62 77 77 77 28 100 100 100 100 100 100 100 100 57 57 57 57 57
 57 52 52 34 34 34 34 34 2 2 2 2 2 100 100 100 100 100 100 57
 57 57 57 57 57 57 52 34 34 34 34 34 2 2 2 2 2 2 100 100
 100 100 100 100 57 57 57 57 57 57 57 57 60 34 16 16 16 2 2 2
 2 2 2 2 100 72 72 72 100 57 57 57 57 57 57 57 60 60 60 16
 16 16 2 2 2 2 2 2 2 2 72 72 72 72 72 57 57 57 57 57
 30 30 60 60 60 2 2 2 2 2 2 2 2 72 72 72 72 72 72 72
 72 57 57 57 30 30 30 30 30 30 2 2 2 2 2 2 2 2 72 72
 72 72 72 72 72 72 72 73 30 30 30 30 30 30 30 2 2 2 2 2
 2 2 2 72 72 72 72 72 72 72 72 72 30 30 30 30 30 30 30 30
 30 2 2 2 2 2 2 72 72 72 48 48 48 72 72 72 72 73 30 30
 30 30 30 30 93 93 99 2 2 2 2 2 72 72 48 48 48 48 48 72
 72 72 73 93 93 93 93 93 93 93 99 99 99 42 42 42 42 42 42 48
 48 48 48 48 72 72 72 82 82 82 93 93 93 93 93 99 99 99 99 42
 42 42 42 42 48 48 48 48 48 72 72 82 82 82 82 82 93 93 93 99
 99 99 99 99 99 42 42 42 42 42 48 48 48 48 72 79 82 82 82 82
 82 93 93 99 99 99 99 99 99 99 42 42 42 42 42 48 48 48 48 79
 79 79 96 96 96 96 53 53 99 99 99 99 99 99 99 42 42 42 42 42
 51 86 86 86 79 79 79 79 96 96 53 53 53 53 99 99 99 99 99 99
 99 58 58 58 51 86 86 86 86 79 79 79 79 79 53 53 53 53 53 99
 99 99 99 99 99 58 58 58 58 58 86 86 86 86 79 79 79 79 79 53
 53 53 53 53 53 99 99 99 58 58 58 58 58 58 58 86 86 86 86 86
 79 79 79 79 53 53 53 53 53 53 53 58 58 58 58 58 58 58 58 86
 86 86 86 86 86 67 79 79 53 53 53 53 53 53 53 62 58 58 58 58
 58 58 58 58 86 86 86 86 86 86 67 67 67 67 53 53 53 53 53 62
 62 62 58 58 58 58 39 39 58 86 86 86 86 86 86 67 67 67 67 52
 52 52 52 62 62 62 62 58 58 58 58 39 39 58 86 86 86 84 84 84
 84 67 38 38 38 52 52 62 62 62 62 62 62 58 58 39 39 58 58 86
 100 100 84 84 84 84 57 38 38 38 38 52 62 62 62 62 62 62 58 58
 58 58 58 100 100 100 100 84 84 84 57 57 57 57 38 52 52 62 62 62
 62 62 62 77 77 77 77 100 100 100 100 100 100 84 57 57 57 57 57 57
 52 52 62 62 62 62 62 62 77 77 77 77 100 100 100 100 100 100 100 57
 57 57 57 57 57 57 52 62 62 62 34 62 62 77 77 77 2 2 100 100
 100 100 100 100 57 57 57 57 57 57 57 57 60 60 16 16 16 2 2 2
 2 2 2 100 100 100 100 100 100 57 57 57 57 57 57 57 60 60 60 16
 16 16 2 2 2 2 2 2 2 100 72 100 72 100 57 57 57 57 57 57
 57 60 60 60 60 16 16 2 2 2 2 2 2 2 2 72 72 72 18 18
 57 57 57 57 57 57 60 60 60 60 16 2 2 2 2 2 2 2 2 72
 72 72 72 72 18 18 73 73 73 30 30 30 30 60 60 2 2 2 2 2
 2 2 2 72 72 72 72 72 72 72 72 73 73 73 30 30 30 30 30 30
 2 2 2 2 2 2 2 2 72 72 48 48 48 72 72 72 73 73 73 30
 30 30 30 30 30 30 2 2 2 2 2 2 48 48 48 48 48 48 48 72
 72 73 73 73 30 30 30 30 30 30 30 99 85 85 85 85 85 48 48 48
 48 48 48 48 48 72 73 73 73 82 93 93 93 93 93 99 99 99 85 85
 85 42 48 48 48 48 48 48 48 48 48 82 82 82 82 82 93 93 93 99
 99 99 99 99 85 42 42 42 42 48 48 48 48 48 48 48 82 82 82 82
 82 82 93 99 99 99 99 99 99 99 42 42 42 42 48 48 48 48 48 48
 79 82 82 82 82 82 82 93 99 99 99 99 99 99 99 42 42 42 42 42
 48 48 48 48 79 79 79 82 82 82 82 53 53 99 99 99 99 99 99 99